 Gaussian 16, Revision A.03,
 Gaussian 16:  ES64L-G16RevA.03 25-Dec-2016

 ---------------------------------------------------------
 #p b3lyp empiricaldispersion=gd3bj 6-31g opt freq=noraman
 ---------------------------------------------------------

 -------
 Complex
 -------
 Symbolic Z-matrix:
 Charge =  0 Multiplicity = 2

 SCF Done:  E(UB3LYP) =  -709.590765499     A.U. after   28 cycles
 SCF Done:  E(UB3LYP) =  -709.820477261     A.U. after   29 cycles
 SCF Done:  E(UB3LYP) =  -709.864933558     A.U. after   25 cycles
 SCF Done:  E(UB3LYP) =  -709.882629868     A.U. after   26 cycles
 SCF Done:  E(UB3LYP) =  -709.901579653     A.U. after   30 cycles
 SCF Done:  E(UB3LYP) =  -709.913175218     A.U. after   27 cycles
 SCF Done:  E(UB3LYP) =  -709.919584341     A.U. after   28 cycles
 SCF Done:  E(UB3LYP) =  -709.921969299     A.U. after   21 cycles
 SCF Done:  E(UB3LYP) =  -709.928622246     A.U. after   29 cycles
 SCF Done:  E(UB3LYP) =  -709.773121974     A.U. after   36 cycles
 SCF Done:  E(UB3LYP) =  -709.951231552     A.U. after   18 cycles
 SCF Done:  E(UB3LYP) =  -709.951244317     A.U. after   19 cycles
 SCF Done:  E(UB3LYP) =  -709.951252130     A.U. after   18 cycles
 SCF Done:  E(UB3LYP) =  -709.951256336     A.U. after   18 cycles
 SCF Done:  E(UB3LYP) =  -709.951260615     A.U. after   17 cycles
 SCF Done:  E(UB3LYP) =  -709.951261879     A.U. after   15 cycles
 SCF Done:  E(UB3LYP) =  -709.951262208     A.U. after   20 cycles
 SCF Done:  E(UB3LYP) =  -709.951262456     A.U. after   15 cycles
 SCF Done:  E(UB3LYP) =  -709.951262559     A.U. after   14 cycles
 Optimization completed.
    -- Stationary point found.
 Normal termination of Gaussian 16 at Sat Dec  2 20:40:22 2017.

 -----------------------------------------------------------------
 #P Geom=AllCheck Guess=TCheck SCRF=Check GenChk UB3LYP/6-31G Freq
 -----------------------------------------------------------------

 Structure from the checkpoint file:  "/scratch/dhuang9_oac_cat1_nocp_complex_b3lyp_d3bj_631g/Gau-64023.chk"
 -------
 Complex
 -------
 Charge =  0 Multiplicity = 2

                         Standard orientation:
 ---------------------------------------------------------------------
 Center     Atomic      Atomic             Coordinates (Angstroms)
 Number     Number       Type             X           Y           Z
 ---------------------------------------------------------------------
      1          6           0       -1.091547    1.406252    0.512337
      2          6           0       -2.440090    0.922904    0.575676
      3          6           0       -3.060184    0.698314   -0.755200
      4          6           0       -1.922727    1.035530   -1.756343
      5          6           0       -0.765992    1.369349   -0.889414
      6          1           0       -2.968275    0.789454    1.512806
      7          1           0       -3.396088   -0.340922   -0.879989
      8          1           0       -3.953059    1.324281   -0.908861
      9          1           0       -1.710124    0.192212   -2.426916
     10          1           0       -2.193618    1.878182   -2.413065
     11          1           0        0.226744    1.618542   -1.251899
     12          8           0       -0.327415    1.739149    1.491455
     13          7           0        2.298915    1.879594    0.307526
     14          1           0        2.893987    2.693070    0.408991
     15          1           0        1.421947    1.933760    0.842996
     16          6           0        3.011002    0.598057    0.419811
     17          1           0        4.003387    0.702411   -0.027036
     18          1           0        3.160124    0.258688    1.460553
     19          6           0        2.277834   -0.455933   -0.353304
     20          8           0        2.783553   -0.628561   -1.635077
     21          1           0        2.358138   -1.372627   -2.105091
     22          6           0        1.039311   -1.029904    0.034484
     23          6           0        0.616179   -1.002104    1.396830
     24          6           0        0.145410   -1.615178   -0.917837
     25          6           0       -0.612598   -1.521374    1.770337
     26          1           0        1.244150   -0.533312    2.140801
     27          6           0       -1.075951   -2.152752   -0.526837
     28          1           0        0.400018   -1.616787   -1.974125
     29          6           0       -1.477620   -2.089130    0.815921
     30          1           0       -0.918848   -1.464237    2.808873
     31          1           0       -1.732453   -2.592550   -1.271174
     32          1           0       -2.435695   -2.496214    1.120670
 ---------------------------------------------------------------------

 SCF Done:  E(UB3LYP) =  -709.951262559     A.U. after    1 cycles

 The electronic state is 2-A.
 Alpha  occ. eigenvalues --  -19.18147 -19.05739 -14.27113 -10.24746 -10.22989
 Alpha  occ. eigenvalues --  -10.21697 -10.21392 -10.20420 -10.20364 -10.20226
 Alpha  occ. eigenvalues --  -10.20131 -10.20058 -10.19414 -10.19325 -10.18732
 Alpha  occ. eigenvalues --  -10.18670  -1.06887  -0.96245  -0.86674  -0.85675
 Alpha  occ. eigenvalues --   -0.85036  -0.77715  -0.75510  -0.72435  -0.70871
 Alpha  occ. eigenvalues --   -0.70228  -0.63634  -0.61067  -0.58805  -0.58537
 Alpha  occ. eigenvalues --   -0.55067  -0.53315  -0.49668  -0.48248  -0.47975
 Alpha  occ. eigenvalues --   -0.47277  -0.45945  -0.44985  -0.44167  -0.42834
 Alpha  occ. eigenvalues --   -0.41067  -0.40616  -0.39576  -0.38713  -0.38400
 Alpha  occ. eigenvalues --   -0.37672  -0.37339  -0.36900  -0.36406  -0.34798
 Alpha  occ. eigenvalues --   -0.34397  -0.34145  -0.33423  -0.27221  -0.26018
 Alpha  occ. eigenvalues --   -0.20269  -0.19568  -0.19073  -0.15129
 Alpha virt. eigenvalues --   -0.10418  -0.00383   0.02039   0.05052   0.07798
 Alpha virt. eigenvalues --    0.08264   0.10535   0.12152   0.12274   0.13474
 Alpha virt. eigenvalues --    0.14167   0.14282   0.15404   0.16612   0.16789

  Beta  occ. eigenvalues --  -19.17815 -19.05727 -14.27018 -10.23788 -10.23012
  Beta  occ. eigenvalues --  -10.21514 -10.21408 -10.20432 -10.20386 -10.20360
  Beta  occ. eigenvalues --  -10.20122 -10.19910 -10.19447 -10.19170 -10.18780
  Beta  occ. eigenvalues --  -10.18459  -1.05994  -0.96223  -0.86353  -0.85549
  Beta  occ. eigenvalues --   -0.84841  -0.77132  -0.75241  -0.72246  -0.70180
  Beta  occ. eigenvalues --   -0.70063  -0.63144  -0.60913  -0.58670  -0.58195
  Beta  occ. eigenvalues --   -0.54856  -0.53217  -0.49313  -0.48125  -0.47805
  Beta  occ. eigenvalues --   -0.47184  -0.45642  -0.44523  -0.43768  -0.42607
  Beta  occ. eigenvalues --   -0.40676  -0.40518  -0.38790  -0.38410  -0.38277
  Beta  occ. eigenvalues --   -0.37330  -0.37184  -0.36831  -0.35262  -0.34456
  Beta  occ. eigenvalues --   -0.34341  -0.33899  -0.33068  -0.26008  -0.25251
  Beta  occ. eigenvalues --   -0.20203  -0.19283  -0.18708
  Beta virt. eigenvalues --   -0.09842  -0.06327   0.00205   0.04226   0.05363
  Beta virt. eigenvalues --    0.07845   0.08337   0.10627   0.12349   0.12412
  Beta virt. eigenvalues --    0.13598   0.14257   0.14414   0.15918   0.16728

 Mulliken charges and spin densities:
               1          2
     1  C    0.334148  -0.019968
     2  C   -0.073704   0.139448
     3  C   -0.318777  -0.014249
     4  C   -0.322172   0.002091
     5  C   -0.087945  -0.011109
     6  H    0.150683  -0.006612
     7  H    0.165336   0.006732
     8  H    0.162811   0.007501
     9  H    0.161504  -0.001701
    10  H    0.169009   0.001042
    11  H    0.197641  -0.000618
    12  O   -0.603221   0.002901
    13  N   -0.736597   0.023974
    14  H    0.269504   0.006383
    15  H    0.344753  -0.000835
    16  C   -0.169912  -0.046977
    17  H    0.155698   0.004128
    18  H    0.120866   0.007118
    19  C    0.241344   0.618630
    20  O   -0.582725   0.084634
    21  H    0.374068  -0.003228
    22  C    0.085854  -0.164930
    23  C   -0.100805   0.197337
    24  C   -0.180880   0.191844
    25  C   -0.129549  -0.091633
    26  H    0.151179  -0.007973
    27  C   -0.132593  -0.106757
    28  H    0.106417  -0.008052
    29  C   -0.131213   0.193264
    30  H    0.134119   0.002659
    31  H    0.121438   0.003616
    32  H    0.123718  -0.008659
 Sum of Mulliken charges =   0.00000   1.00000

 Dipole moment (field-independent basis, Debye):
    X=             -2.8534    Y=             -2.6538    Z=             -2.7394  Tot=              4.7633
 Quadrupole moment (field-independent basis, Debye-Ang):
   XX=            -84.6237   YY=            -97.0504   ZZ=            -91.8637
   XY=              0.2052   XZ=              5.0815   YZ=             -1.8750

  Exact polarizability: 239.095 -21.298 157.342   1.960  -7.431 145.667
 Approx polarizability: 404.132   3.011 235.182 -42.621  -7.756 284.971

                      1                      2                      3
                      A                      A                      A
 Frequencies --     45.2620                64.4173                75.1054
 Red. masses --      4.4766                 5.2415                 4.8591
 Frc consts  --      0.0054                 0.0128                 0.0161
 IR Inten    --      1.4433                 1.6595                 4.2810

                      4                      5                      6
                      A                      A                      A
 Frequencies --     92.0143               100.7977               111.2897
 Red. masses --      4.0631                 4.0255                 4.0648
 Frc consts  --      0.0203                 0.0241                 0.0297
 IR Inten    --      3.5285                 2.8854                 1.9794

                      7                      8                      9
                      A                      A                      A
 Frequencies --    133.0708               149.1638               190.6399
 Red. masses --      3.9041                 4.3467                 2.3349
 Frc consts  --      0.0407                 0.0570                 0.0500
 IR Inten    --      5.1701                 3.4853                10.0090

                     10                     11                     12
                      A                      A                      A
 Frequencies --    200.4550               221.5238               230.5730
 Red. masses --      2.6862                 3.1275                 3.3439
 Frc consts  --      0.0636                 0.0904                 0.1047
 IR Inten    --      0.7821                10.4458                 4.7651

                     13                     14                     15
                      A                      A                      A
 Frequencies --    250.4304               352.5915               381.1767
 Red. masses --      3.6539                 2.2135                 1.2687
 Frc consts  --      0.1350                 0.1621                 0.1086
 IR Inten    --      5.4135                33.3823               108.7592

                     16                     17                     18
                      A                      A                      A
 Frequencies --    416.5356               429.8450               458.8457
 Red. masses --      2.2408                 1.8653                 4.3945
 Frc consts  --      0.2291                 0.2031                 0.5451
 IR Inten    --      4.4800                 7.0343                 1.4701

                     19                     20                     21
                      A                      A                      A
 Frequencies --    462.8360               478.4661               524.4112
 Red. masses --      2.9279                 4.1330                 2.0817
 Frc consts  --      0.3695                 0.5575                 0.3373
 IR Inten    --     30.2483                 2.7333                 1.8091

                     22                     23                     24
                      A                      A                      A
 Frequencies --    531.3722               606.8435               645.0429
 Red. masses --      3.9445                 3.9910                 6.3504
 Frc consts  --      0.6562                 0.8659                 1.5568
 IR Inten    --     25.9864                12.7121                 1.8805

                     25                     26                     27
                      A                      A                      A
 Frequencies --    659.1364               691.7551               713.3245
 Red. masses --      7.5547                 1.8289                 1.4832
 Frc consts  --      1.9338                 0.5156                 0.4447
 IR Inten    --      7.6357                14.9039                 4.4448

                     28                     29                     30
                      A                      A                      A
 Frequencies --    745.3906               772.2534               778.9938
 Red. masses --      4.2515                 2.1043                 4.6321
 Frc consts  --      1.3917                 0.7394                 1.6561
 IR Inten    --     28.9604                62.2768                 4.6732

                     31                     32                     33
                      A                      A                      A
 Frequencies --    827.2176               852.6410               897.2335
 Red. masses --      1.2789                 1.1873                 1.3935
 Frc consts  --      0.5156                 0.5086                 0.6609
 IR Inten    --      6.3241                 1.5353                10.9319

                     34                     35                     36
                      A                      A                      A
 Frequencies --    903.4199               916.5328               919.7264
 Red. masses --      1.5455                 1.4866                 2.5969
 Frc consts  --      0.7432                 0.7358                 1.2943
 IR Inten    --    180.4562                10.6930                22.7180

                     37                     38                     39
                      A                      A                      A
 Frequencies --    948.5969               974.2688               978.2993
 Red. masses --      1.9515                 1.3634                 2.8512
 Frc consts  --      1.0346                 0.7625                 1.6077
 IR Inten    --     29.7318                 1.6649                16.4444

                     40                     41                     42
                      A                      A                      A
 Frequencies --    995.9660              1002.3962              1004.8506
 Red. masses --      2.3421                 1.3505                 1.7232
 Frc consts  --      1.3688                 0.7995                 1.0252
 IR Inten    --      9.9838                 6.5910                18.6052

                     43                     44                     45
                      A                      A                      A
 Frequencies --   1023.4299              1026.5483              1055.7625
 Red. masses --      2.0606                 4.3408                 2.3906
 Frc consts  --      1.2716                 2.6951                 1.5699
 IR Inten    --      2.4962                 5.5811                 7.9753

                     46                     47                     48
                      A                      A                      A
 Frequencies --   1083.3593              1101.0167              1133.6458
 Red. masses --      2.6812                 1.4846                 1.8234
 Frc consts  --      1.8541                 1.0603                 1.3806
 IR Inten    --     31.9639                29.7195                25.0753

                     49                     50                     51
                      A                      A                      A
 Frequencies --   1146.5719              1158.0405              1204.9283
 Red. masses --      1.1415                 1.5732                 1.1334
 Frc consts  --      0.8841                 1.2430                 0.9695
 IR Inten    --      0.8506               310.0958                 0.5603

                     52                     53                     54
                      A                      A                      A
 Frequencies --   1220.1608              1231.0710              1247.3120
 Red. masses --      1.0985                 1.4462                 1.1801
 Frc consts  --      0.9636                 1.2913                 1.0817
 IR Inten    --      0.5086                21.8986                 1.6429

                     55                     56                     57
                      A                      A                      A
 Frequencies --   1266.7503              1274.2974              1327.3057
 Red. masses --      2.3322                 2.2274                 1.6168
 Frc consts  --      2.2050                 2.1311                 1.6782
 IR Inten    --      7.9752                 8.2942                14.5628

                     58                     59                     60
                      A                      A                      A
 Frequencies --   1345.7633              1348.9032              1361.5244
 Red. masses --      1.4349                 1.7530                 1.9596
 Frc consts  --      1.5311                 1.8793                 2.1403
 IR Inten    --      7.5275                60.9851                48.6150

                     61                     62                     63
                      A                      A                      A
 Frequencies --   1365.4825              1388.8563              1400.8995
 Red. masses --      3.0015                 2.2820                 1.9918
 Frc consts  --      3.2973                 2.5935                 2.3031
 IR Inten    --      1.8610                 7.4389                 5.0817

                     64                     65                     66
                      A                      A                      A
 Frequencies --   1442.9548              1461.1528              1489.9254
 Red. masses --      1.5227                 3.0354                 1.0851
 Frc consts  --      1.8679                 3.8182                 1.4192
 IR Inten    --     33.0799                89.2148                 6.7899

                     67                     68                     69
                      A                      A                      A
 Frequencies --   1503.6133              1506.1336              1538.8535
 Red. masses --      1.3579                 1.6590                 1.1704
 Frc consts  --      1.8089                 2.2174                 1.6330
 IR Inten    --     13.7776                22.5043                 6.8890

                     70                     71                     72
                      A                      A                      A
 Frequencies --   1552.3323              1595.5511              1606.2313
 Red. masses --      1.9656                 3.8820                 5.5151
 Frc consts  --      2.7907                 5.8228                 8.3835
 IR Inten    --      7.1828                21.4809               230.1118

                     73                     74                     75
                      A                      A                      A
 Frequencies --   1636.2154              1741.6363              2947.9503
 Red. masses --      5.0034                 1.0876                 1.0710
 Frc consts  --      7.8921                 1.9437                 5.4839
 IR Inten    --      3.5780                24.2142                93.7264

                     76                     77                     78
                      A                      A                      A
 Frequencies --   3008.5155              3018.0889              3045.7628
 Red. masses --      1.0687                 1.0642                 1.0914
 Frc consts  --      5.6993                 5.7112                 5.9650
 IR Inten    --     15.7765                30.6315                 9.1055

                     79                     80                     81
                      A                      A                      A
 Frequencies --   3059.6160              3113.0445              3173.3860
 Red. masses --      1.0895                 1.0869                 1.0857
 Frc consts  --      6.0090                 6.2060                 6.4417
 IR Inten    --     18.0784                35.7683                10.1831

                     82                     83                     84
                      A                      A                      A
 Frequencies --   3196.0101              3209.4308              3222.0972
 Red. masses --      1.0889                 1.0913                 1.0939
 Frc consts  --      6.5535                 6.6232                 6.6914
 IR Inten    --     12.2028                18.3677                10.9026

                     85                     86                     87
                      A                      A                      A
 Frequencies --   3225.1426              3241.7105              3261.6686
 Red. masses --      1.0961                 1.0924                 1.0930
 Frc consts  --      6.7175                 6.7639                 6.8511
 IR Inten    --     17.5653                 5.2758                 5.9563

                     88                     89                     90
                      A                      A                      A
 Frequencies --   3307.7176              3608.1674              3644.3917
 Red. masses --      1.0651                 1.0840                 1.0647
 Frc consts  --      6.8658                 8.3150                 8.3314
 IR Inten    --    173.8385                 2.3792                33.1266

 - Thermochemistry -
 -------------------
 Temperature   298.150 Kelvin.  Pressure   1.00000 Atm.
 Atom     1 has atomic number  6 and mass  12.00000

 Molecular mass:   218.11810 amu.
 Principal axes and moments of inertia in atomic units:
                           1         2         3
     Eigenvalues --  2457.487613753.924924282.48073
           X            0.99927   0.03052   0.02295
           Y           -0.03021   0.99945  -0.01379
           Z           -0.02336   0.01309   0.99964
 This molecule is an asymmetric top.
 Rotational symmetry number  1.
 Warning -- assumption of classical behavior for rotation
           may cause significant error
 Rotational temperatures (Kelvin)      0.03524     0.02307     0.02023
 Rotational constants (GHZ):           0.73438     0.48076     0.42142
 Zero-point vibrational energy     698640.9 (Joules/Mol)
                                  166.97919 (Kcal/Mol)
 Warning -- explicit consideration of  23 degrees of freedom as
           vibrations may cause significant error
 Vibrational temperatures:     65.12    92.68   108.06   132.39   145.03
          (Kelvin)            160.12   191.46   214.61   274.29   288.41
                              318.72   331.74   360.31   507.30   548.43
                              599.30   618.45   660.18   665.92   688.41
                              754.51   764.53   873.11   928.07   948.35
                              995.28  1026.31  1072.45  1111.10  1120.80
                             1190.18  1226.76  1290.92  1299.82  1318.69
                             1323.28  1364.82  1401.76  1407.55  1432.97
                             1442.22  1445.76  1472.49  1476.97  1519.01
                             1558.71  1584.12  1631.06  1649.66  1666.16
                             1733.62  1755.54  1771.24  1794.60  1822.57
                             1833.43  1909.70  1936.25  1940.77  1958.93
                             1964.62  1998.25  2015.58  2076.09  2102.27
                             2143.67  2163.36  2166.99  2214.07  2233.46
                             2295.64  2311.01  2354.15  2505.83  4241.44
                             4328.58  4342.36  4382.17  4402.10  4478.98
                             4565.79  4598.35  4617.66  4635.88  4640.26
                             4664.10  4692.81  4759.07  5191.35  5243.47

 Zero-point correction=                           0.266098 (Hartree/Particle)
 Thermal correction to Energy=                    0.281859
 Thermal correction to Enthalpy=                  0.282803
 Thermal correction to Gibbs Free Energy=         0.222481
 Sum of electronic and zero-point Energies=           -709.685164
 Sum of electronic and thermal Energies=              -709.669404
 Sum of electronic and thermal Enthalpies=            -709.668460
 Sum of electronic and thermal Free Energies=         -709.728782

                     E (Thermal)             CV                S
                      KCal/Mol        Cal/Mol-Kelvin    Cal/Mol-Kelvin
 Total                  176.869             59.973            126.959
 Electronic               0.000              0.000              1.377
 Translational            0.889              2.981             42.043
 Rotational               0.889              2.981             32.047
 Vibrational            175.092             54.011             51.493
 Vibration     1          0.595              1.979              5.014
 Vibration     2          0.597              1.971              4.317
 Vibration     3          0.599              1.966              4.015
 Vibration     4          0.602              1.955              3.617
 Vibration     5          0.604              1.948              3.439
 Vibration     6          0.607              1.940              3.246
 Vibration     7          0.613              1.920              2.901
 Vibration     8          0.618              1.904              2.683
 Vibration     9          0.634              1.853              2.222
 Vibration    10          0.638              1.839              2.129
 Vibration    11          0.648              1.808              1.947
 Vibration    12          0.652              1.794              1.874
 Vibration    13          0.663              1.762              1.728
 Vibration    14          0.729              1.570              1.155
 Vibration    15          0.751              1.510              1.034
 Vibration    16          0.780              1.434              0.904
 Vibration    17          0.791              1.405              0.859
 Vibration    18          0.817              1.341              0.769
 Vibration    19          0.820              1.332              0.758
 Vibration    20          0.835              1.298              0.714
 Vibration    21          0.879              1.196              0.600
 Vibration    22          0.886              1.181              0.584
 Vibration    23          0.966              1.017              0.438

                           ! Non-Optimized Parameters !
 Normal termination of Gaussian 16 at Sat Dec  2 20:56:36 2017.
