 Gaussian 16, Revision A.03,
 Gaussian 16:  ES64L-G16RevA.03 25-Dec-2016

 ------------------------
 #p pddg opt freq=noraman
 ------------------------

 -------
 Complex
 -------
 Symbolic Z-matrix:
 Charge =  0 Multiplicity = 1

 SCF Done:  E(RPDDG) =  0.803265476898E-01 A.U. after   16 cycles
 SCF Done:  E(RPDDG) =  0.485150311516E-01 A.U. after   16 cycles
 SCF Done:  E(RPDDG) =  0.552085122797E-01 A.U. after   16 cycles
 SCF Done:  E(RPDDG) =  0.484384644373E-01 A.U. after   15 cycles
 SCF Done:  E(RPDDG) =  0.450403489272E-01 A.U. after   15 cycles
 SCF Done:  E(RPDDG) =  0.426066345061E-01 A.U. after   16 cycles
 SCF Done:  E(RPDDG) =  0.398936332747E-01 A.U. after   16 cycles
 SCF Done:  E(RPDDG) =  0.413911778267E-01 A.U. after   17 cycles
 SCF Done:  E(RPDDG) =  0.377538499927E-01 A.U. after   15 cycles
 SCF Done:  E(RPDDG) =  0.360348565486E-01 A.U. after   15 cycles
 SCF Done:  E(RPDDG) =  0.267978203186E-01 A.U. after   13 cycles
 SCF Done:  E(RPDDG) =  0.268143235534E-01 A.U. after   14 cycles
 SCF Done:  E(RPDDG) =  0.267802455799E-01 A.U. after   14 cycles
 SCF Done:  E(RPDDG) =  0.267744495898E-01 A.U. after   14 cycles
 SCF Done:  E(RPDDG) =  0.267671213759E-01 A.U. after   12 cycles
 SCF Done:  E(RPDDG) =  0.267684576459E-01 A.U. after   12 cycles
 SCF Done:  E(RPDDG) =  0.267643839317E-01 A.U. after   13 cycles
 SCF Done:  E(RPDDG) =  0.267638378809E-01 A.U. after   12 cycles
 SCF Done:  E(RPDDG) =  0.267637674939E-01 A.U. after   10 cycles
 Optimization completed.
    -- Stationary point found.
 Normal termination of Gaussian 16 at Thu Dec  7 02:40:03 2017.

 --------------------------------------------------------------
 #P Geom=AllCheck Guess=TCheck SCRF=Check GenChk RPDDG/ZDO Freq
 --------------------------------------------------------------

 Structure from the checkpoint file:  "/scratch/dhuang9_oac_cat3_dime_isolated_pddg/Gau-40960.chk"
 -------
 Complex
 -------
 Charge =  0 Multiplicity = 1

                         Standard orientation:
 ---------------------------------------------------------------------
 Center     Atomic      Atomic             Coordinates (Angstroms)
 Number     Number       Type             X           Y           Z
 ---------------------------------------------------------------------
      1          7           0       -3.253630    0.789489   -1.011213
      2          1           0       -2.345968    1.173198   -1.141972
      3          6           0       -3.399920    0.103312    0.300020
      4          1           0       -4.263895    0.655550    0.768425
      5          6           0       -2.198978    0.259409    1.283091
      6          1           0       -2.606854   -0.019469    2.296487
      7          8           0       -1.837951    1.586649    1.500116
      8          1           0       -1.360043    1.933677    0.722848
      9          6           0       -0.974241   -0.598006    1.011935
     10          6           0       -0.578574   -1.019184   -0.231512
     11          6           0       -0.180987   -0.922666    2.149592
     12          6           0        0.618940   -1.770671   -0.384585
     13          1           0       -1.171303   -0.803580   -1.137927
     14          6           0        0.976637   -1.641221    2.021546
     15          1           0       -0.505582   -0.582018    3.147745
     16          6           0        1.035192   -2.213301   -1.668471
     17          6           0        1.400877   -2.079902    0.739232
     18          1           0        1.583304   -1.896339    2.904988
     19          6           0        2.192368   -2.935438   -1.799992
     20          1           0        0.416609   -1.971098   -2.547866
     21          6           0        2.594992   -2.830909    0.582389
     22          6           0        2.978687   -3.247562   -0.665435
     23          1           0        2.520107   -3.285300   -2.789601
     24          1           0        3.196047   -3.077196    1.472098
     25          1           0        3.898960   -3.834478   -0.798121
     26          6           0       -3.632245    0.022379   -2.209740
     27          1           0       -3.517125    0.659741   -3.096811
     28          1           0       -3.050866   -0.899020   -2.385344
     29          1           0       -4.690524   -0.272580   -2.164545
     30          6           0       -3.776501   -1.374098    0.227624
     31          1           0       -3.858031   -1.801287    1.235593
     32          1           0       -4.749949   -1.534320   -0.253596
     33          1           0       -3.043561   -1.987258   -0.315282
     34          6           0        0.883685    2.729527   -0.284997
     35          6           0        1.718743    1.701268    0.258359
     36          6           0        3.140915    2.071684    0.238470
     37          6           0        3.172511    3.472767   -0.392272
     38          6           0        1.761993    3.786195   -0.674107
     39          1           0        1.353073    0.730852    0.642533
     40          1           0        3.576194    2.052808    1.262277
     41          1           0        3.741149    1.328933   -0.332813
     42          1           0        3.628911    4.233160    0.279194
     43          1           0        3.789259    3.508839   -1.317263
     44          1           0        1.442852    4.730864   -1.132238
     45          8           0       -0.363540    2.706897   -0.406016
 ---------------------------------------------------------------------

 SCF Done:  E(RPDDG) =  0.267637675008E-01 A.U. after    2 cycles

 The electronic state is 1-A.
 Alpha  occ. eigenvalues --   -1.57017  -1.50976  -1.45788  -1.31415  -1.30189
 Alpha  occ. eigenvalues --   -1.27242  -1.18254  -1.12158  -1.06716  -1.06355
 Alpha  occ. eigenvalues --   -1.02961  -0.99876  -0.94238  -0.87888  -0.82156
 Alpha  occ. eigenvalues --   -0.80672  -0.78868  -0.77786  -0.70947  -0.70849
 Alpha  occ. eigenvalues --   -0.67847  -0.66394  -0.65076  -0.64168  -0.62138
 Alpha  occ. eigenvalues --   -0.61843  -0.59338  -0.57831  -0.57230  -0.56435
 Alpha  occ. eigenvalues --   -0.55672  -0.55319  -0.53981  -0.53570  -0.53182
 Alpha  occ. eigenvalues --   -0.52544  -0.51380  -0.51166  -0.50933  -0.50215
 Alpha  occ. eigenvalues --   -0.50112  -0.49082  -0.48428  -0.48340  -0.46919
 Alpha  occ. eigenvalues --   -0.46778  -0.45400  -0.44796  -0.43756  -0.43290
 Alpha  occ. eigenvalues --   -0.41010  -0.39662  -0.38409  -0.36442  -0.34831
 Alpha  occ. eigenvalues --   -0.32892  -0.31135  -0.30932
 Alpha virt. eigenvalues --   -0.08590  -0.02000  -0.00170   0.03428   0.06773
 Alpha virt. eigenvalues --    0.06903   0.07245   0.07813   0.08848   0.09802
 Alpha virt. eigenvalues --    0.10160   0.10625   0.10651   0.10834   0.11344

 Mulliken charges:
               1
     1  N   -0.083795
     2  H    0.102356
     3  C   -0.127560
     4  H    0.123096
     5  C    0.078664
     6  H    0.106851
     7  O   -0.368659
     8  H    0.264897
     9  C   -0.097177
    10  C   -0.141653
    11  C   -0.135492
    12  C   -0.042954
    13  H    0.168990
    14  C   -0.159805
    15  H    0.161963
    16  C   -0.134651
    17  C   -0.049092
    18  H    0.154041
    19  C   -0.152584
    20  H    0.155044
    21  C   -0.139774
    22  C   -0.151615
    23  H    0.151121
    24  H    0.152464
    25  H    0.150461
    26  C   -0.268631
    27  H    0.094513
    28  H    0.066283
    29  H    0.094210
    30  C   -0.300677
    31  H    0.095868
    32  H    0.096846
    33  H    0.097952
    34  C    0.207064
    35  C   -0.099323
    36  C   -0.195903
    37  C   -0.189360
    38  C   -0.116039
    39  H    0.192399
    40  H    0.140889
    41  H    0.142378
    42  H    0.136788
    43  H    0.136256
    44  H    0.169304
    45  O   -0.485954
 Sum of Mulliken charges =   0.00000

 Dipole moment (field-independent basis, Debye):
    X=              7.8267    Y=             -1.1019    Z=             -0.8083  Tot=              7.9451
 N-N= 9.849843575269D+02 E-N=-1.697566448987D+03  KE=-1.917322092580D+02
  Exact polarizability: 201.704 -38.291 176.630  -7.917  -7.778 172.445
 Approx polarizability: 159.254 -38.691 137.022  -4.455  -8.384 155.257
 Leave Link  601 at Thu Dec  7 02:40:08 2017, MaxMem=   402653184 cpu:               1.1 elap:               0.4
 (Enter /n/sw/g16_nehalem/g16/l701.exe)
 ... and contract with generalized density number  0.
 Compute integral second derivatives.
 Leave Link  701 at Thu Dec  7 02:40:09 2017, MaxMem=   402653184 cpu:               1.5 elap:               0.5
 (Enter /n/sw/g16_nehalem/g16/l702.exe)
 L702 exits ... SP integral derivatives will be done elsewhere.

                      1                      2                      3
                      A                      A                      A
 Frequencies --     17.8934                21.9221                49.6033
 Red. masses --      4.3679                 4.1626                 4.3601
 Frc consts  --      0.0008                 0.0012                 0.0063
 IR Inten    --      3.0154                 3.3806                 0.2168

                      4                      5                      6
                      A                      A                      A
 Frequencies --     57.8850                74.1952                82.2517
 Red. masses --      3.1815                 4.6391                 4.8243
 Frc consts  --      0.0063                 0.0150                 0.0192
 IR Inten    --      0.5094                 3.1401                 4.7583

                      7                      8                      9
                      A                      A                      A
 Frequencies --     99.3631               117.5814               133.6818
 Red. masses --      2.9919                 4.7688                 3.3646
 Frc consts  --      0.0174                 0.0388                 0.0354
 IR Inten    --      2.0431                 0.5026                 0.8203

                     10                     11                     12
                      A                      A                      A
 Frequencies --    168.5829               172.3761               187.0504
 Red. masses --      3.8204                 1.7816                 2.8807
 Frc consts  --      0.0640                 0.0312                 0.0594
 IR Inten    --      0.2190                 1.1197                 1.0318

                     13                     14                     15
                      A                      A                      A
 Frequencies --    197.5790               204.1546               223.9038
 Red. masses --      3.0505                 2.4082                 1.4480
 Frc consts  --      0.0702                 0.0591                 0.0428
 IR Inten    --      4.6771                 3.9840                 3.4203

                     16                     17                     18
                      A                      A                      A
 Frequencies --    265.5784               280.7702               339.4265
 Red. masses --      5.4436                 4.3467                 4.3430
 Frc consts  --      0.2262                 0.2019                 0.2948
 IR Inten    --      1.1321                 4.4365                 6.2663

                     19                     20                     21
                      A                      A                      A
 Frequencies --    356.2811               372.0223               407.5858
 Red. masses --      2.7367                 4.9808                 1.2097
 Frc consts  --      0.2047                 0.4061                 0.1184
 IR Inten    --      0.8577                 1.1903                 1.2163

                     22                     23                     24
                      A                      A                      A
 Frequencies --    443.7953               454.0073               467.8764
 Red. masses --      3.4394                 2.9355                 2.5362
 Frc consts  --      0.3991                 0.3565                 0.3271
 IR Inten    --      0.6625                 4.4361                14.9214

                     25                     26                     27
                      A                      A                      A
 Frequencies --    475.2240               476.6497               501.9570
 Red. masses --      3.4640                 3.4060                 3.0817
 Frc consts  --      0.4609                 0.4559                 0.4575
 IR Inten    --     10.1247                 6.6710                 4.8399

                     28                     29                     30
                      A                      A                      A
 Frequencies --    526.7036               542.1994               544.6999
 Red. masses --      2.8194                 4.3664                 6.5051
 Frc consts  --      0.4608                 0.7563                 1.1372
 IR Inten    --      0.2866                 2.9303                 0.2844

                     31                     32                     33
                      A                      A                      A
 Frequencies --    586.7144               635.9650               659.1878
 Red. masses --      3.3382                 4.0927                 3.3862
 Frc consts  --      0.6770                 0.9753                 0.8669
 IR Inten    --      3.1637                10.7708                14.8210

                     34                     35                     36
                      A                      A                      A
 Frequencies --    668.7362               694.1045               697.6449
 Red. masses --      4.4059                 3.4212                 1.3202
 Frc consts  --      1.1609                 0.9711                 0.3786
 IR Inten    --      8.4204                 5.9962                59.6256

                     37                     38                     39
                      A                      A                      A
 Frequencies --    742.2459               750.8795               756.5969
 Red. masses --      2.2577                 1.7547                 3.5457
 Frc consts  --      0.7329                 0.5829                 1.1959
 IR Inten    --      7.9939                53.1994                 2.9768

                     40                     41                     42
                      A                      A                      A
 Frequencies --    766.9046               767.6654               780.3465
 Red. masses --      1.6078                 1.1831                 1.4048
 Frc consts  --      0.5571                 0.4108                 0.5040
 IR Inten    --     55.4009                 6.1075               113.4071

                     43                     44                     45
                      A                      A                      A
 Frequencies --    836.2121               856.2029               873.8092
 Red. masses --      1.5612                 1.5024                 1.5037
 Frc consts  --      0.6432                 0.6489                 0.6765
 IR Inten    --     41.3951                57.7775                36.0555

                     46                     47                     48
                      A                      A                      A
 Frequencies --    886.2117               889.8844               904.7770
 Red. masses --      1.8490                 1.6598                 3.4191
 Frc consts  --      0.8556                 0.7744                 1.6491
 IR Inten    --     33.6487                 8.2518                 0.9035

                     49                     50                     51
                      A                      A                      A
 Frequencies --    926.9950               947.5537               959.3503
 Red. masses --      1.2342                 1.4282                 3.6155
 Frc consts  --      0.6249                 0.7555                 1.9605
 IR Inten    --      9.7677                 1.2147                 5.3343

                     52                     53                     54
                      A                      A                      A
 Frequencies --    965.5437               971.9932               973.8136
 Red. masses --      1.3955                 1.6348                 1.6706
 Frc consts  --      0.7665                 0.9100                 0.9334
 IR Inten    --     22.7751                 3.0501                15.9141

                     55                     56                     57
                      A                      A                      A
 Frequencies --    975.8245               985.2545               986.1361
 Red. masses --      1.7412                 1.4629                 1.2195
 Frc consts  --      0.9769                 0.8367                 0.6987
 IR Inten    --      5.2455                 1.9138                10.2209

                     58                     59                     60
                      A                      A                      A
 Frequencies --    991.4354              1019.2635              1024.1105
 Red. masses --      1.9512                 1.3304                 1.0447
 Frc consts  --      1.1300                 0.8143                 0.6455
 IR Inten    --      3.4610                 1.3899                 3.9632

                     61                     62                     63
                      A                      A                      A
 Frequencies --   1037.9027              1038.7849              1045.5594
 Red. masses --      1.5128                 1.3057                 1.2152
 Frc consts  --      0.9602                 0.8301                 0.7827
 IR Inten    --     11.8855                 0.0163                12.9126

                     64                     65                     66
                      A                      A                      A
 Frequencies --   1051.6956              1057.7911              1090.8841
 Red. masses --      1.3846                 1.4381                 1.2875
 Frc consts  --      0.9023                 0.9480                 0.9027
 IR Inten    --      5.3014                 7.8206                 1.6239

                     67                     68                     69
                      A                      A                      A
 Frequencies --   1099.2759              1117.9436              1129.3747
 Red. masses --      1.1521                 1.2621                 1.6091
 Frc consts  --      0.8203                 0.9294                 1.2092
 IR Inten    --      2.2106                 0.5705                10.1493

                     70                     71                     72
                      A                      A                      A
 Frequencies --   1130.1405              1135.6764              1138.4783
 Red. masses --      2.1770                 1.2745                 1.6077
 Frc consts  --      1.6383                 0.9685                 1.2278
 IR Inten    --      4.8618                 2.4848                 0.6503

                     73                     74                     75
                      A                      A                      A
 Frequencies --   1176.5188              1179.9453              1196.1595
 Red. masses --      1.2438                 1.2710                 1.3542
 Frc consts  --      1.0143                 1.0426                 1.1416
 IR Inten    --      1.8997                 0.6764                 4.9083

                     76                     77                     78
                      A                      A                      A
 Frequencies --   1213.9577              1243.0479              1247.6319
 Red. masses --      1.4538                 1.9025                 1.1586
 Frc consts  --      1.2623                 1.7320                 1.0626
 IR Inten    --     11.2845                 0.8628                41.8427

                     79                     80                     81
                      A                      A                      A
 Frequencies --   1272.8886              1279.5330              1284.3525
 Red. masses --      2.2069                 1.5206                 1.0983
 Frc consts  --      2.1067                 1.4668                 1.0674
 IR Inten    --      5.6076                16.1714                 1.7634

                     82                     83                     84
                      A                      A                      A
 Frequencies --   1290.2063              1305.4911              1322.5714
 Red. masses --      2.9776                 1.3842                 1.1699
 Frc consts  --      2.9204                 1.3899                 1.2057
 IR Inten    --      4.5795                23.2302                 7.1433

                     85                     86                     87
                      A                      A                      A
 Frequencies --   1332.0413              1345.5018              1359.4678
 Red. masses --      1.1814                 1.2484                 2.1997
 Frc consts  --      1.2350                 1.3316                 2.3952
 IR Inten    --      0.3378                 2.7141                 2.2567

                     88                     89                     90
                      A                      A                      A
 Frequencies --   1359.7670              1373.4931              1394.0760
 Red. masses --      1.6817                 1.4996                 1.1244
 Frc consts  --      1.8320                 1.6668                 1.2875
 IR Inten    --     11.7314                 5.1894                 7.8048

                     91                     92                     93
                      A                      A                      A
 Frequencies --   1404.1981              1420.1325              1432.1421
 Red. masses --      2.1039                 4.8486                 2.7086
 Frc consts  --      2.4441                 5.7614                 3.2732
 IR Inten    --    118.8025                89.8413                13.1883

                     94                     95                     96
                      A                      A                      A
 Frequencies --   1435.9908              1438.3687              1472.3628
 Red. masses --      6.7612                 1.8903                 3.7952
 Frc consts  --      8.2144                 2.3042                 4.8475
 IR Inten    --     48.1297                15.2084                 2.9414

                     97                     98                     99
                      A                      A                      A
 Frequencies --   1477.7182              1496.3648              1526.2607
 Red. masses --      1.4060                 8.8872                 4.2304
 Frc consts  --      1.8089                11.7244                 5.8062
 IR Inten    --     23.7659               396.0958                 0.7825

                    100                    101                    102
                      A                      A                      A
 Frequencies --   1610.2197              1632.6777              1692.7635
 Red. masses --      8.8727                 8.3556                 8.3335
 Frc consts  --     13.5542                13.1228                14.0692
 IR Inten    --      1.2415                 0.4514                 3.6011

                    103                    104                    105
                      A                      A                      A
 Frequencies --   1807.1102              1817.1907              1852.5068
 Red. masses --      9.5948                 8.9778                 9.5800
 Frc consts  --     18.4611                17.4671                19.3704
 IR Inten    --      0.5133                 3.6191                 0.2026

                    106                    107                    108
                      A                      A                      A
 Frequencies --   1877.1348              2695.4328              2724.4266
 Red. masses --     11.4153                 1.0937                 1.0888
 Frc consts  --     23.6990                 4.6819                 4.7614
 IR Inten    --    936.7509                 1.7667                 9.0320

                    109                    110                    111
                      A                      A                      A
 Frequencies --   2864.8907              2879.8990              2897.5776
 Red. masses --      1.1029                 1.0995                 1.0628
 Frc consts  --      5.3335                 5.3726                 5.2576
 IR Inten    --      0.5677                43.7917                59.7034

                    112                    113                    114
                      A                      A                      A
 Frequencies --   2903.5440              2931.7745              2942.8145
 Red. masses --      1.0608                 1.0743                 1.0946
 Frc consts  --      5.2693                 5.4406                 5.5850
 IR Inten    --     66.1257                 0.8445                35.8588

                    115                    116                    117
                      A                      A                      A
 Frequencies --   2955.5121              2958.7611              2965.4405
 Red. masses --      1.0942                 1.0939                 1.1012
 Frc consts  --      5.6315                 5.6421                 5.7055
 IR Inten    --     30.1498                25.5293                75.6626

                    118                    119                    120
                      A                      A                      A
 Frequencies --   2971.0036              2971.1861              2972.8786
 Red. masses --      1.0982                 1.0948                 1.0862
 Frc consts  --      5.7111                 5.6946                 5.6559
 IR Inten    --     57.9208                 2.1939                18.9436

                    121                    122                    123
                      A                      A                      A
 Frequencies --   2977.1446              2983.0146              2983.7139
 Red. masses --      1.0907                 1.1066                 1.0815
 Frc consts  --      5.6956                 5.8019                 5.6729
 IR Inten    --    222.4158                70.0390                 7.2803

                    124                    125                    126
                      A                      A                      A
 Frequencies --   3013.5566              3019.0988              3025.2830
 Red. masses --      1.0947                 1.0962                 1.0939
 Frc consts  --      5.8574                 5.8872                 5.8988
 IR Inten    --      3.7502                 6.0921                84.6014

                    127                    128                    129
                      A                      A                      A
 Frequencies --   3035.8889              3291.8534              3585.9994
 Red. masses --      1.0432                 1.0780                 1.0569
 Frc consts  --      5.6646                 6.8828                 8.0079
 IR Inten    --      4.1285                18.4969               750.7201

 - Thermochemistry -
 -------------------
 Temperature   298.150 Kelvin.  Pressure   1.00000 Atm.
 Atom     1 has atomic number  7 and mass  14.00307

 Molecular mass:   297.17288 amu.
 Principal axes and moments of inertia in atomic units:
                           1         2         3
     Eigenvalues --  6266.233277172.24723**********
           X            0.99427   0.10616   0.01247
           Y           -0.10617   0.99435   0.00051
           Z           -0.01235  -0.00183   0.99992
 This molecule is an asymmetric top.
 Rotational symmetry number  1.
 Warning -- assumption of classical behavior for rotation
           may cause significant error
 Rotational temperatures (Kelvin)      0.01382     0.01208     0.00831
 Rotational constants (GHZ):           0.28801     0.25163     0.17310
 Zero-point vibrational energy     980567.9 (Joules/Mol)
                                  234.36136 (Kcal/Mol)
 Warning -- explicit consideration of  31 degrees of freedom as
           vibrations may cause significant error
 Vibrational temperatures:     25.74    31.54    71.37    83.28   106.75
          (Kelvin)            118.34   142.96   169.17   192.34   242.55
                              248.01   269.12   284.27   293.73   322.15
                              382.11   403.97   488.36   512.61   535.26
                              586.42   638.52   653.22   673.17   683.74
                              685.79   722.20   757.81   780.10   783.70
                              844.15   915.01   948.42   962.16   998.66
                             1003.76  1067.93  1080.35  1088.57  1103.40
                             1104.50  1122.74  1203.12  1231.88  1257.22
                             1275.06  1280.35  1301.77  1333.74  1363.32
                             1380.29  1389.20  1398.48  1401.10  1403.99
                             1417.56  1418.83  1426.45  1466.49  1473.47
                             1493.31  1494.58  1504.33  1513.16  1521.93
                             1569.54  1581.61  1608.47  1624.92  1626.02
                             1633.99  1638.02  1692.75  1697.68  1721.01
                             1746.61  1788.47  1795.06  1831.40  1840.96
                             1847.90  1856.32  1878.31  1902.89  1916.51
                             1935.88  1955.97  1956.40  1976.15  2005.76
                             2020.33  2043.25  2060.53  2066.07  2069.49
                             2118.40  2126.11  2152.94  2195.95  2316.75
                             2349.06  2435.51  2600.03  2614.53  2665.34
                             2700.78  3878.13  3919.84  4121.94  4143.53
                             4168.97  4177.55  4218.17  4234.05  4252.32
                             4257.00  4266.61  4274.61  4274.87  4277.31
                             4283.45  4291.89  4292.90  4335.84  4343.81
                             4352.71  4367.97  4736.24  5159.45

 Zero-point correction=                           0.373479 (Hartree/Particle)
 Thermal correction to Energy=                    0.394007
 Thermal correction to Enthalpy=                  0.394951
 Thermal correction to Gibbs Free Energy=         0.322842
 Sum of electronic and zero-point Energies=              0.400242
 Sum of electronic and thermal Energies=                 0.420770
 Sum of electronic and thermal Enthalpies=               0.421715
 Sum of electronic and thermal Free Energies=            0.349606

                     E (Thermal)             CV                S
                      KCal/Mol        Cal/Mol-Kelvin    Cal/Mol-Kelvin
 Total                  247.243             80.908            151.766
 Electronic               0.000              0.000              0.000
 Translational            0.889              2.981             42.965
 Rotational               0.889              2.981             34.504
 Vibrational            245.465             74.946             74.297
 Vibration     1          0.593              1.986              6.855
 Vibration     2          0.593              1.985              6.452
 Vibration     3          0.595              1.978              4.833
 Vibration     4          0.596              1.974              4.528
 Vibration     5          0.599              1.966              4.039
 Vibration     6          0.600              1.961              3.836
 Vibration     7          0.604              1.950              3.467
 Vibration     8          0.608              1.935              3.140
 Vibration     9          0.613              1.920              2.892
 Vibration    10          0.625              1.881              2.451
 Vibration    11          0.626              1.876              2.409
 Vibration    12          0.632              1.858              2.257
 Vibration    13          0.637              1.843              2.156
 Vibration    14          0.640              1.834              2.095
 Vibration    15          0.649              1.805              1.927
 Vibration    16          0.671              1.736              1.625
 Vibration    17          0.680              1.709              1.529
 Vibration    18          0.719              1.597              1.215
 Vibration    19          0.732              1.562              1.138
 Vibration    20          0.744              1.530              1.071
 Vibration    21          0.772              1.454              0.935
 Vibration    22          0.803              1.375              0.815
 Vibration    23          0.812              1.352              0.784
 Vibration    24          0.825              1.321              0.744
 Vibration    25          0.832              1.305              0.723
 Vibration    26          0.833              1.302              0.719
 Vibration    27          0.857              1.246              0.653
 Vibration    28          0.882              1.191              0.595
 Vibration    29          0.897              1.157              0.561
 Vibration    30          0.900              1.151              0.555
 Vibration    31          0.944              1.060              0.473

                           ! Non-Optimized Parameters !
 Normal termination of Gaussian 16 at Thu Dec  7 02:40:16 2017.
