 Gaussian 16, Revision A.03,
 Gaussian 16:  ES64L-G16RevA.03 25-Dec-2016

 ------------------------
 #p pddg opt freq=noraman
 ------------------------

 -------
 Complex
 -------
 Symbolic Z-matrix:
 Charge =  0 Multiplicity = 2

 SCF Done:  E(UPDDG) =  0.356625248892     A.U. after   36 cycles
 SCF Done:  E(UPDDG) =  0.891470747233E-01 A.U. after   57 cycles
 SCF Done:  E(UPDDG) =  0.328885966077E-01 A.U. after   24 cycles
 SCF Done:  E(UPDDG) =  0.185212722187E-01 A.U. after   22 cycles
 SCF Done:  E(UPDDG) = -0.283490435447E-02 A.U. after   22 cycles
 SCF Done:  E(UPDDG) = -0.121754834968E-01 A.U. after   22 cycles
 SCF Done:  E(UPDDG) = -0.155901651407E-01 A.U. after   21 cycles
 SCF Done:  E(UPDDG) = -0.179629192486E-01 A.U. after   20 cycles
 SCF Done:  E(UPDDG) = -0.187386854313E-01 A.U. after   19 cycles
 SCF Done:  E(UPDDG) = -0.180477317863E-01 A.U. after   19 cycles
 SCF Done:  E(UPDDG) = -0.242341586096E-01 A.U. after   16 cycles
 SCF Done:  E(UPDDG) = -0.242447825618E-01 A.U. after   17 cycles
 SCF Done:  E(UPDDG) = -0.242347736220E-01 A.U. after   18 cycles
 SCF Done:  E(UPDDG) = -0.242636762206E-01 A.U. after   17 cycles
 SCF Done:  E(UPDDG) = -0.242077549573E-01 A.U. after   15 cycles
 SCF Done:  E(UPDDG) = -0.241932909022E-01 A.U. after   18 cycles
 SCF Done:  E(UPDDG) = -0.242542969058E-01 A.U. after   18 cycles
 SCF Done:  E(UPDDG) = -0.242631460756E-01 A.U. after   18 cycles
 SCF Done:  E(UPDDG) = -0.242630459916E-01 A.U. after   10 cycles
 Optimization completed.
    -- Stationary point found.

 1\1\GINC-HOLY7C17302\FOpt\UPDDG\ZDO\C13H16N1O2(2)\ROOT\02-Dec-2017\0\\
 #p pddg opt freq=noraman\\Complex\\0,2\C,-12.7594871314,-4.0537293329,
 -0.1586322238\C,-12.4963064603,-4.292555641,1.2709179582\C,-11.3629919
 949,-5.2210936242,1.4333377658\C,-10.8918307835,-5.5812905469,0.008742
 0141\C,-11.7760046528,-4.8475942068,-0.9151502054\H,-13.0590360221,-3.
 8550532807,2.1001503598\H,-10.5462159697,-4.7449939627,2.0349655978\H,
 -11.66955169,-6.1158094071,2.0148280871\H,-9.8217369376,-5.2983034077,
 -0.1585711794\H,-10.9377994476,-6.6731025018,-0.1865766026\H,-11.70672

 Normal termination of Gaussian 16 at Sat Dec  2 18:29:54 2017.

 --------------------------------------------------------------
 #P Geom=AllCheck Guess=TCheck SCRF=Check GenChk UPDDG/ZDO Freq
 --------------------------------------------------------------

 Structure from the checkpoint file:  "/scratch/dhuang9_oac_cat1_nocp_complex/Gau-14291.chk"
 -------
 Complex
 -------
 Charge =  0 Multiplicity = 2

                         Standard orientation:
 ---------------------------------------------------------------------
 Center     Atomic      Atomic             Coordinates (Angstroms)
 Number     Number       Type             X           Y           Z
 ---------------------------------------------------------------------
      1          6           0       -5.130985    0.264759    0.663400
      2          6           0       -4.671621   -1.055963    0.200157
      3          6           0       -3.653021   -0.901435   -0.854138
      4          6           0       -3.468307    0.617048   -1.057353
      5          6           0       -4.391111    1.273976   -0.113676
      6          1           0       -5.032782   -2.018531    0.572616
      7          1           0       -2.696124   -1.401643   -0.554321
      8          1           0       -3.971388   -1.415726   -1.785145
      9          1           0       -2.412519    0.936124   -0.865834
     10          1           0       -3.682443    0.931497   -2.100226
     11          1           0       -4.506430    2.357039   -0.017106
     12          8           0       -5.962831    0.480978    1.524841
     13          7           0        5.560007   -0.574157    1.099690
     14          1           0        6.411294   -1.062852    0.977762
     15          1           0        4.889654   -1.176663    1.512823
     16          6           0        5.082501   -0.092882   -0.220452
     17          1           0        5.891801    0.527047   -0.676615
     18          1           0        4.908512   -0.916320   -0.956716
     19          6           0        3.818244    0.698392   -0.042077
     20          8           0        4.039650    2.023116    0.079558
     21          1           0        3.345679    2.370710    0.631638
     22          6           0        2.512803    0.116713   -0.133362
     23          6           0        2.341398   -1.282956   -0.027629
     24          6           0        1.367927    0.927824   -0.322823
     25          6           0        1.070228   -1.845032   -0.098957
     26          1           0        3.199641   -1.956717    0.122006
     27          6           0        0.105570    0.350069   -0.391894
     28          1           0        1.446425    2.019112   -0.449694
     29          6           0       -0.052472   -1.034102   -0.277936
     30          1           0        0.949339   -2.934431   -0.010075
     31          1           0       -0.792977    0.980783   -0.542527
     32          1           0       -1.069208   -1.471550   -0.331173
 ---------------------------------------------------------------------

 SCF Done:  E(UPDDG) = -0.242630459915E-01 A.U. after    2 cycles

 The electronic state is 2-A.
 Alpha  occ. eigenvalues --   -1.53244  -1.49469  -1.40544  -1.32767  -1.25668
 Alpha  occ. eigenvalues --   -1.12486  -1.11271  -1.05521  -0.97974  -0.94307
 Alpha  occ. eigenvalues --   -0.84264  -0.81338  -0.77224  -0.75022  -0.72106
 Alpha  occ. eigenvalues --   -0.70634  -0.66189  -0.64330  -0.63198  -0.60838
 Alpha  occ. eigenvalues --   -0.60081  -0.58839  -0.57247  -0.56290  -0.55257
 Alpha  occ. eigenvalues --   -0.54308  -0.53860  -0.53437  -0.52388  -0.51256
 Alpha  occ. eigenvalues --   -0.50235  -0.49566  -0.49361  -0.49003  -0.46923
 Alpha  occ. eigenvalues --   -0.46320  -0.45036  -0.39607  -0.39064  -0.38257
 Alpha  occ. eigenvalues --   -0.36100  -0.35127  -0.30964
 Alpha virt. eigenvalues --   -0.02287   0.00957   0.01679   0.06718   0.07182
 Alpha virt. eigenvalues --    0.07588   0.08937   0.09119   0.09718   0.09896
 Alpha virt. eigenvalues --    0.10319   0.10902   0.11143   0.12087   0.12765

  Beta  occ. eigenvalues --   -1.52586  -1.49343  -1.39960  -1.32759  -1.25413
  Beta  occ. eigenvalues --   -1.12249  -1.11168  -1.05459  -0.97970  -0.92668
  Beta  occ. eigenvalues --   -0.83755  -0.81173  -0.77141  -0.74369  -0.71877
  Beta  occ. eigenvalues --   -0.70619  -0.66116  -0.63857  -0.62912  -0.60223
  Beta  occ. eigenvalues --   -0.59653  -0.58171  -0.57334  -0.56297  -0.55130
  Beta  occ. eigenvalues --   -0.54228  -0.53392  -0.52903  -0.52351  -0.50881
  Beta  occ. eigenvalues --   -0.49891  -0.49466  -0.48886  -0.48548  -0.46689
  Beta  occ. eigenvalues --   -0.46188  -0.44754  -0.39607  -0.37744  -0.37482
  Beta  occ. eigenvalues --   -0.36098  -0.34986
  Beta virt. eigenvalues --   -0.02285  -0.01289   0.01579   0.04596   0.07175
  Beta virt. eigenvalues --    0.07570   0.07941   0.09109   0.09703   0.10043
  Beta virt. eigenvalues --    0.10294   0.10710   0.11030   0.11774   0.12084

 Mulliken charges and spin densities:
               1          2
     1  C    0.309358  -0.000024
     2  C   -0.250275  -1.063771
     3  C   -0.168443   0.110321
     4  C   -0.170679  -0.110412
     5  C   -0.250243   1.063738
     6  H    0.174086   0.062905
     7  H    0.120515  -0.044539
     8  H    0.119154  -0.044479
     9  H    0.121890   0.044611
    10  H    0.119444   0.044372
    11  H    0.173973  -0.062895
    12  O   -0.300170   0.000042
    13  N   -0.092161   0.029585
    14  H    0.058221  -0.000027
    15  H    0.059398  -0.000609
    16  C   -0.146012  -0.074322
    17  H    0.117988   0.008445
    18  H    0.086288   0.007469
    19  C   -0.048278   0.842708
    20  O   -0.199411   0.056952
    21  H    0.211558   0.014238
    22  C   -0.047525  -0.482774
    23  C   -0.146652   0.519397
    24  C   -0.153585   0.517850
    25  C   -0.138079  -0.446474
    26  H    0.151371  -0.033549
    27  C   -0.151564  -0.445194
    28  H    0.152880  -0.033305
    29  C   -0.170492   0.495414
    30  H    0.150183   0.028094
    31  H    0.152367   0.027216
    32  H    0.154897  -0.030985
 Sum of Mulliken charges =   0.00000   1.00000

 Dipole moment (field-independent basis, Debye):
    X=              1.7615    Y=             -2.1337    Z=             -2.9481  Tot=              4.0431
 N-N= 5.492880397378D+02 E-N=-8.928303379670D+02  KE=-1.453020985110D+02
  Exact polarizability: 165.786   6.477 119.606 -10.837  -1.071  65.590
 Approx polarizability: 105.533   3.352  92.021  -9.471  -1.047  47.808
 Leave Link  601 at Sat Dec  2 18:30:02 2017, MaxMem=   402653184 cpu:               2.1 elap:               0.7
 (Enter /n/sw/g16_nehalem/g16/l701.exe)
 ... and contract with generalized density number  0.
 Compute integral second derivatives.
 Leave Link  701 at Sat Dec  2 18:30:03 2017, MaxMem=   402653184 cpu:               1.3 elap:               0.6
 (Enter /n/sw/g16_nehalem/g16/l702.exe)
 L702 exits ... SP integral derivatives will be done elsewhere.

                      1                      2                      3
                      A                      A                      A
 Frequencies --     13.0673                19.9779                29.5368
 Red. masses --      5.9978                 4.4036                 4.8491
 Frc consts  --      0.0006                 0.0010                 0.0025
 IR Inten    --      1.1955                 0.8024                 0.4231

                      4                      5                      6
                      A                      A                      A
 Frequencies --     35.7271                57.3334                99.0561
 Red. masses --      5.5803                 4.5083                 3.0670
 Frc consts  --      0.0042                 0.0087                 0.0177
 IR Inten    --      2.4892                 0.2394                 1.5019

                      7                      8                      9
                      A                      A                      A
 Frequencies --    117.2451               138.9590               148.4828
 Red. masses --      3.6114                 3.6705                 2.8098
 Frc consts  --      0.0292                 0.0418                 0.0365
 IR Inten    --      1.4510                 0.8048                14.9801

                     10                     11                     12
                      A                      A                      A
 Frequencies --    200.4224               210.3172               227.4665
 Red. masses --      2.7595                 2.8151                 1.4621
 Frc consts  --      0.0653                 0.0734                 0.0446
 IR Inten    --     12.0705                 3.7715                27.8608

                     13                     14                     15
                      A                      A                      A
 Frequencies --    242.1880               274.3940               347.7715
 Red. masses --      1.9621                 2.0340                 2.5891
 Frc consts  --      0.0678                 0.0902                 0.1845
 IR Inten    --     26.3364                33.5070                 1.6521

                     16                     17                     18
                      A                      A                      A
 Frequencies --    370.2196               390.6922               467.7670
 Red. masses --      2.2517                 3.4621                 2.5505
 Frc consts  --      0.1818                 0.3114                 0.3288
 IR Inten    --     26.7073                 7.4611                 8.5725

                     19                     20                     21
                      A                      A                      A
 Frequencies --    469.6647               478.5394               489.6625
 Red. masses --      5.4476                 1.5847                 3.0244
 Frc consts  --      0.7080                 0.2138                 0.4272
 IR Inten    --     10.5076                37.5488                 8.5212

                     22                     23                     24
                      A                      A                      A
 Frequencies --    535.1166               598.4879               613.5705
 Red. masses --      4.7913                 1.2789                 2.9288
 Frc consts  --      0.8084                 0.2699                 0.6496
 IR Inten    --      6.9448                 0.0308                10.5689

                     25                     26                     27
                      A                      A                      A
 Frequencies --    619.1947               639.4403               642.8854
 Red. masses --      2.4968                 6.6605                 5.7329
 Frc consts  --      0.5640                 1.6046                 1.3960
 IR Inten    --      1.1182                 2.4279                 1.8364

                     28                     29                     30
                      A                      A                      A
 Frequencies --    686.5126               723.8961               758.7379
 Red. masses --      1.8068                 4.1715                 1.2722
 Frc consts  --      0.5017                 1.2879                 0.4315
 IR Inten    --    117.3525                 1.2747                98.8404

                     31                     32                     33
                      A                      A                      A
 Frequencies --    779.5252               815.5555               825.0391
 Red. masses --      1.9152                 1.4370                 2.2453
 Frc consts  --      0.6857                 0.5632                 0.9005
 IR Inten    --     47.0720                 0.5822                 1.9394

                     34                     35                     36
                      A                      A                      A
 Frequencies --    856.3377               881.9800               913.5344
 Red. masses --      1.7782                 1.5160                 1.2574
 Frc consts  --      0.7683                 0.6948                 0.6182
 IR Inten    --      0.1226                10.8927                22.6824

                     37                     38                     39
                      A                      A                      A
 Frequencies --    927.6453               950.9285               990.9512
 Red. masses --      1.5210                 1.7950                 1.4135
 Frc consts  --      0.7712                 0.9563                 0.8178
 IR Inten    --      0.5298                 1.1414                 1.9107

                     40                     41                     42
                      A                      A                      A
 Frequencies --    992.3541              1001.3618              1032.0728
 Red. masses --      1.4273                 2.0027                 2.0558
 Frc consts  --      0.8281                 1.1832                 1.2902
 IR Inten    --      0.9285                 3.7778                 2.5166

                     43                     44                     45
                      A                      A                      A
 Frequencies --   1034.6987              1066.7517              1070.0795
 Red. masses --      1.6735                 1.2315                 1.2510
 Frc consts  --      1.0556                 0.8257                 0.8440
 IR Inten    --      1.7461                14.2535                13.3107

                     46                     47                     48
                      A                      A                      A
 Frequencies --   1076.4289              1083.2957              1103.9815
 Red. masses --      1.2942                 1.2781                 1.5823
 Frc consts  --      0.8835                 0.8837                 1.1362
 IR Inten    --     10.3238                 0.4968                 8.1000

                     49                     50                     51
                      A                      A                      A
 Frequencies --   1108.6436              1143.6972              1154.0259
 Red. masses --      1.5300                 1.3544                 1.1690
 Frc consts  --      1.1079                 1.0438                 0.9173
 IR Inten    --     11.5546                27.0252                 2.3286

                     52                     53                     54
                      A                      A                      A
 Frequencies --   1178.1175              1189.5916              1192.7443
 Red. masses --      1.2871                 1.3976                 1.3898
 Frc consts  --      1.0526                 1.1653                 1.1649
 IR Inten    --      5.4079                 3.3337                 4.3366

                     55                     56                     57
                      A                      A                      A
 Frequencies --   1247.2774              1256.0741              1262.0306
 Red. masses --      1.2247                 1.4932                 1.2001
 Frc consts  --      1.1226                 1.3880                 1.1261
 IR Inten    --      9.4709                18.1142                17.6642

                     58                     59                     60
                      A                      A                      A
 Frequencies --   1273.0917              1301.6710              1325.0736
 Red. masses --      1.6699                 1.3542                 1.3799
 Frc consts  --      1.5946                 1.3519                 1.4275
 IR Inten    --     19.5225                 3.7001                71.6890

                     61                     62                     63
                      A                      A                      A
 Frequencies --   1372.8253              1385.7439              1389.7590
 Red. masses --      1.6688                 4.1799                 1.1794
 Frc consts  --      1.8531                 4.7292                 1.3421
 IR Inten    --      9.5498                43.8511                 0.4055

                     64                     65                     66
                      A                      A                      A
 Frequencies --   1407.7831              1423.3674              1457.9650
 Red. masses --      6.7470                 8.1078                 6.5934
 Frc consts  --      7.8782                 9.6780                 8.2576
 IR Inten    --      9.8638                 2.7649                19.5768

                     67                     68                     69
                      A                      A                      A
 Frequencies --   1475.8046              1515.7652              1545.9148
 Red. masses --      2.7917                 4.2299                 4.6395
 Frc consts  --      3.5824                 5.7258                 6.5327
 IR Inten    --      5.0434                29.7569                67.4673

                     70                     71                     72
                      A                      A                      A
 Frequencies --   1621.6899              1649.2061              1697.1702
 Red. masses --      5.9538                 1.1439                 8.7798
 Frc consts  --      9.2253                 1.8331                14.9000
 IR Inten    --     24.0860                 6.6683                15.8678

                     73                     74                     75
                      A                      A                      A
 Frequencies --   1700.8163              2015.1613              2810.8868
 Red. masses --      8.5561                12.6976                 1.0917
 Frc consts  --     14.5827                30.3802                 5.0821
 IR Inten    --      0.3524               448.7377                 0.6092

                     76                     77                     78
                      A                      A                      A
 Frequencies --   2838.1062              2849.5494              2872.1546
 Red. masses --      1.0755                 1.0883                 1.0878
 Frc consts  --      5.1039                 5.2067                 5.2873
 IR Inten    --     15.1959                22.6710               124.6217

                     79                     80                     81
                      A                      A                      A
 Frequencies --   2890.1519              2900.6649              2952.4938
 Red. masses --      1.0769                 1.0770                 1.0828
 Frc consts  --      5.2999                 5.3389                 5.5615
 IR Inten    --      5.1899                26.2263                 4.2600

                     82                     83                     84
                      A                      A                      A
 Frequencies --   2959.5185              2964.1922              2972.5758
 Red. masses --      1.0914                 1.0888                 1.0890
 Frc consts  --      5.6322                 5.6367                 5.6694
 IR Inten    --     14.8668                42.9411                57.7173

                     85                     86                     87
                      A                      A                      A
 Frequencies --   2983.5452              3056.5373              3060.5547
 Red. masses --      1.0914                 1.0865                 1.0917
 Frc consts  --      5.7238                 5.9804                 6.0251
 IR Inten    --     52.5255               105.0569                 3.1174

                     88                     89                     90
                      A                      A                      A
 Frequencies --   3360.7846              3498.8836              3772.6437
 Red. masses --      1.0990                 1.0419                 1.0663
 Frc consts  --      7.3138                 7.5148                 8.9417
 IR Inten    --      0.0530                 5.9838                17.5900

 - Thermochemistry -
 -------------------
 Temperature   298.150 Kelvin.  Pressure   1.00000 Atm.
 Atom     1 has atomic number  6 and mass  12.00000

 Molecular mass:   218.11810 amu.
 Principal axes and moments of inertia in atomic units:
                           1         2         3
     Eigenvalues --  1283.43575********************
           X            0.99997  -0.00257   0.00723
           Y            0.00269   0.99986  -0.01647
           Z           -0.00718   0.01649   0.99984
 This molecule is an asymmetric top.
 Rotational symmetry number  1.
 Warning -- assumption of classical behavior for rotation
           may cause significant error
 Rotational temperatures (Kelvin)      0.06749     0.00717     0.00686
 Rotational constants (GHZ):           1.40618     0.14949     0.14289
 Zero-point vibrational energy     676387.2 (Joules/Mol)
                                  161.66042 (Kcal/Mol)
 Warning -- explicit consideration of  25 degrees of freedom as
           vibrations may cause significant error
 Vibrational temperatures:     18.80    28.74    42.50    51.40    82.49
          (Kelvin)            142.52   168.69   199.93   213.63   288.36
                              302.60   327.27   348.45   394.79   500.37
                              532.66   562.12   673.01   675.74   688.51
                              704.52   769.91   861.09   882.79   890.88
                              920.01   924.97   987.74  1041.53  1091.65
                             1121.56  1173.40  1187.05  1232.08  1268.97
                             1314.37  1334.67  1368.17  1425.76  1427.78
                             1440.74  1484.92  1488.70  1534.82  1539.61
                             1548.74  1558.62  1588.38  1595.09  1645.53
                             1660.39  1695.05  1711.56  1716.09  1794.55
                             1807.21  1815.78  1831.70  1872.81  1906.49
                             1975.19  1993.78  1999.55  2025.49  2047.91
                             2097.69  2123.35  2180.85  2224.23  2333.25
                             2372.84  2441.85  2447.10  2899.37  4044.24
                             4083.40  4099.87  4132.39  4158.28  4173.41
                             4247.98  4258.09  4264.81  4276.87  4292.66
                             4397.68  4403.46  4835.42  5034.11  5427.99

 Zero-point correction=                           0.257622 (Hartree/Particle)
 Thermal correction to Energy=                    0.274466
 Thermal correction to Enthalpy=                  0.275410
 Thermal correction to Gibbs Free Energy=         0.208438
 Sum of electronic and zero-point Energies=              0.233359
 Sum of electronic and thermal Energies=                 0.250203
 Sum of electronic and thermal Enthalpies=               0.251147
 Sum of electronic and thermal Free Energies=            0.184175

                     E (Thermal)             CV                S
                      KCal/Mol        Cal/Mol-Kelvin    Cal/Mol-Kelvin
 Total                  172.230             61.890            140.956
 Electronic               0.000              0.000              1.377
 Translational            0.889              2.981             42.043
 Rotational               0.889              2.981             33.636
 Vibrational            170.453             55.929             63.900
 Vibration     1          0.593              1.987              7.480
 Vibration     2          0.593              1.986              6.636
 Vibration     3          0.593              1.984              5.860
 Vibration     4          0.594              1.982              5.483
 Vibration     5          0.596              1.975              4.547
 Vibration     6          0.604              1.950              3.473
 Vibration     7          0.608              1.935              3.145
 Vibration     8          0.615              1.914              2.818
 Vibration     9          0.618              1.904              2.692
 Vibration    10          0.638              1.839              2.129
 Vibration    11          0.642              1.825              2.041
 Vibration    12          0.651              1.799              1.899
 Vibration    13          0.658              1.776              1.787
 Vibration    14          0.677              1.721              1.568
 Vibration    15          0.725              1.580              1.176
 Vibration    16          0.742              1.533              1.079
 Vibration    17          0.758              1.490              0.997
 Vibration    18          0.825              1.322              0.744
 Vibration    19          0.827              1.317              0.738
 Vibration    20          0.835              1.298              0.714
 Vibration    21          0.846              1.273              0.684
 Vibration    22          0.890              1.172              0.576
 Vibration    23          0.956              1.035              0.452
 Vibration    24          0.973              1.003              0.427
 Vibration    25          0.979              0.991              0.418

                           ! Non-Optimized Parameters !

 1\1\GINC-HOLY7C17302\Freq\UPDDG\ZDO\C13H16N1O2(2)\ROOT\02-Dec-2017\0\\
 #P Geom=AllCheck Guess=TCheck SCRF=Check GenChk UPDDG/ZDO Freq\\Comple
 x\\0,2\C,-12.7594871314,-4.0537293329,-0.1586322238\C,-12.4963064603,-
 4.292555641,1.2709179582\C,-11.3629919949,-5.2210936242,1.4333377658\C
 ,-10.8918307835,-5.5812905469,0.0087420141\C,-11.7760046528,-4.8475942
 068,-0.9151502054\H,-13.0590360221,-3.8550532807,2.1001503598\H,-10.54
 62159697,-4.7449939627,2.0349655978\H,-11.66955169,-6.1158094071,2.014
 8280871\H,-9.8217369376,-5.2983034077,-0.1585711794\H,-10.9377994476,-

 Normal termination of Gaussian 16 at Sat Dec  2 18:30:11 2017.
