 Gaussian 16, Revision A.03,
 Gaussian 16:  ES64L-G16RevA.03 25-Dec-2016

 ---------------------------------------------------------
 #p b3lyp empiricaldispersion=gd3bj midix opt freq=noraman
 ---------------------------------------------------------

 -------
 Complex
 -------
 Symbolic Z-matrix:
 Charge =  0 Multiplicity = 1

 SCF Done:  E(RB3LYP) =  -936.599887070     A.U. after   20 cycles
 SCF Done:  E(RB3LYP) =  -936.953769105     A.U. after   17 cycles
 SCF Done:  E(RB3LYP) =  -937.205682352     A.U. after   18 cycles
 SCF Done:  E(RB3LYP) =  -937.244183578     A.U. after   17 cycles
 SCF Done:  E(RB3LYP) =  -937.396044911     A.U. after   17 cycles
 SCF Done:  E(RB3LYP) =  -937.389116864     A.U. after   17 cycles
 SCF Done:  E(RB3LYP) =  -937.511692315     A.U. after   15 cycles
 SCF Done:  E(RB3LYP) =  -937.552617566     A.U. after   14 cycles
 SCF Done:  E(RB3LYP) =  -937.567910946     A.U. after   14 cycles
 SCF Done:  E(RB3LYP) =  -937.577101479     A.U. after   14 cycles
 SCF Done:  E(RB3LYP) =  -937.623176064     A.U. after   11 cycles
 SCF Done:  E(RB3LYP) =  -937.623179836     A.U. after    9 cycles
 SCF Done:  E(RB3LYP) =  -937.623181925     A.U. after    9 cycles
 SCF Done:  E(RB3LYP) =  -937.623182496     A.U. after    8 cycles
 SCF Done:  E(RB3LYP) =  -937.623182780     A.U. after    8 cycles
 SCF Done:  E(RB3LYP) =  -937.623183199     A.U. after    8 cycles
 SCF Done:  E(RB3LYP) =  -937.623183640     A.U. after    8 cycles
 SCF Done:  E(RB3LYP) =  -937.623184003     A.U. after    8 cycles
 SCF Done:  E(RB3LYP) =  -937.623184226     A.U. after    8 cycles
 Optimization completed.
    -- Stationary point found.

 1\1\GINC-HOLY7C01308\FOpt\RB3LYP\MIDIx\C19H23N1O2\ROOT\07-Dec-2017\0\\
 #p b3lyp empiricaldispersion=gd3bj midix opt freq=noraman\\Complex\\0,
 1\C,-0.7406329981,0.6215178202,-1.31639346\C,-1.4541556932,0.466692137
 8,-2.552980673\C,-2.6348539183,-0.4242155245,-2.4555124089\C,-2.531437
 3964,-1.0150626072,-1.0126369399\C,-1.3434457464,-0.3384182499,-0.4367
 705769\H,-1.2158284504,1.0662150985,-3.4247985863\H,-3.5774901375,0.13
 39444227,-2.5942720811\H,-2.6275123895,-1.2203638145,-3.2167078207\H,-
 3.4446628177,-0.8270774309,-0.4226717789\H,-2.4047755939,-2.1105355134

 Normal termination of Gaussian 16 at Thu Dec  7 20:49:07 2017.

 -----------------------------------------------------------------
 #P Geom=AllCheck Guess=TCheck SCRF=Check GenChk RB3LYP/MIDIx Freq
 -----------------------------------------------------------------

 Structure from the checkpoint file:  "/scratch/dhuang9_oac_cat4_nocp_b3lyp_d3bj_midix/Gau-47452.chk"
 -------
 Complex
 -------
 Charge =  0 Multiplicity = 1

                         Standard orientation:
 ---------------------------------------------------------------------
 Center     Atomic      Atomic             Coordinates (Angstroms)
 Number     Number       Type             X           Y           Z
 ---------------------------------------------------------------------
      1          6           0        0.869995    1.332062    1.272949
      2          6           0       -0.358492    2.064348    1.143299
      3          6           0       -1.468600    1.521147    1.961746
      4          6           0       -0.883964    0.191598    2.538102
      5          6           0        0.511471    0.170456    2.035005
      6          1           0       -0.405078    3.003840    0.603411
      7          1           0       -1.755916    2.216966    2.769610
      8          1           0       -2.378799    1.335944    1.369663
      9          1           0       -0.929922    0.163438    3.640133
     10          1           0       -1.466978   -0.673421    2.178114
     11          1           0        1.230228   -0.596788    2.300214
     12          8           0        1.999316    1.650601    0.781522
     13          7           0        4.086762   -0.374604    0.923477
     14          1           0        3.474949    0.423028    1.190537
     15          1           0        4.714775    0.042096    0.212705
     16          6           0        3.208939   -1.291775    0.180561
     17          1           0        3.801005   -2.168556   -0.120942
     18          1           0        2.438188   -1.636276    0.875277
     19          8           0        3.165410    0.570481   -1.455602
     20          1           0        2.868395    1.151025   -0.685420
     21          6           0        1.008887   -0.486586   -1.043670
     22          6           0        0.133548   -1.435350   -0.527466
     23          6           0        0.498693    0.733987   -1.525762
     24          6           0       -1.264152   -1.122723   -0.424439
     25          6           0       -0.831846    1.082520   -1.433154
     26          1           0        1.217692    1.413748   -1.966956
     27          6           0       -2.189993   -2.035298    0.142264
     28          6           0       -1.755463    0.137999   -0.883687
     29          6           0       -3.534553   -1.733656    0.241826
     30          1           0       -1.835273   -2.994223    0.506951
     31          6           0       -3.139550    0.412797   -0.785239
     32          6           0       -4.017132   -0.501070   -0.234018
     33          1           0       -4.221363   -2.452419    0.682311
     34          1           0       -3.516740    1.360822   -1.158318
     35          1           0       -5.077797   -0.270436   -0.170303
     36          6           0        0.574035   -2.853834   -0.213088
     37          1           0        1.583584   -3.051904   -0.582576
     38          1           0        0.561503   -3.070330    0.866229
     39          1           0       -0.100971   -3.571764   -0.701516
     40          6           0       -1.317679    2.385252   -2.029315
     41          1           0       -1.942042    2.204876   -2.919182
     42          1           0       -1.921670    2.969105   -1.319261
     43          1           0       -0.461421    2.999701   -2.333940
     44          6           0        2.530263   -0.672771   -1.136692
     45          1           0        2.752061   -1.339509   -1.983774
 ---------------------------------------------------------------------

 SCF Done:  E(RB3LYP) =  -937.623184226     A.U. after    1 cycles

 The electronic state is 1-A.
 Alpha  occ. eigenvalues --  -18.98923 -18.96440 -14.17524 -10.18270 -10.16347
 Alpha  occ. eigenvalues --  -10.16005 -10.15993 -10.15103 -10.14871 -10.14791
 Alpha  occ. eigenvalues --  -10.14769 -10.14732 -10.14618 -10.14106 -10.14056
 Alpha  occ. eigenvalues --  -10.14041 -10.13976 -10.13439 -10.12908 -10.12840
 Alpha  occ. eigenvalues --  -10.12137 -10.12029  -0.99250  -0.97839  -0.90135
 Alpha  occ. eigenvalues --   -0.87152  -0.84851  -0.84032  -0.81892  -0.76729
 Alpha  occ. eigenvalues --   -0.75705  -0.73706  -0.73493  -0.71482  -0.69559
 Alpha  occ. eigenvalues --   -0.66865  -0.63899  -0.62595  -0.59583  -0.58823
 Alpha  occ. eigenvalues --   -0.57309  -0.54636  -0.52706  -0.51724  -0.50409
 Alpha  occ. eigenvalues --   -0.49188  -0.49007  -0.47522  -0.45964  -0.45418
 Alpha  occ. eigenvalues --   -0.44468  -0.43732  -0.43251  -0.43106  -0.42079
 Alpha  occ. eigenvalues --   -0.41785  -0.41687  -0.40147  -0.39655  -0.39585
 Alpha  occ. eigenvalues --   -0.39028  -0.38932  -0.38818  -0.38350  -0.37561
 Alpha  occ. eigenvalues --   -0.37314  -0.36979  -0.35722  -0.34872  -0.33707
 Alpha  occ. eigenvalues --   -0.33096  -0.31774  -0.29306  -0.28250  -0.25323
 Alpha  occ. eigenvalues --   -0.23644  -0.22787  -0.22277  -0.20693  -0.19525
 Alpha virt. eigenvalues --   -0.10628  -0.04958  -0.01413   0.02431   0.06670
 Alpha virt. eigenvalues --    0.07537   0.07937   0.08449   0.08967   0.10039
 Alpha virt. eigenvalues --    0.10722   0.12067   0.12629   0.13615   0.13768

 Mulliken charges:
               1
     1  C    0.422635
     2  C   -0.099327
     3  C   -0.399148
     4  C   -0.396476
     5  C   -0.110627
     6  H    0.193533
     7  H    0.199147
     8  H    0.230841
     9  H    0.195888
    10  H    0.231207
    11  H    0.205262
    12  O   -0.660243
    13  N   -0.720136
    14  H    0.262191
    15  H    0.244179
    16  C   -0.104599
    17  H    0.142831
    18  H    0.152727
    19  O   -0.660859
    20  H    0.371827
    21  C   -0.116309
    22  C   -0.023178
    23  C   -0.093597
    24  C   -0.060143
    25  C   -0.067725
    26  H    0.175472
    27  C   -0.144032
    28  C   -0.050534
    29  C   -0.159121
    30  H    0.167246
    31  C   -0.143200
    32  C   -0.160067
    33  H    0.166840
    34  H    0.166874
    35  H    0.167027
    36  C   -0.467488
    37  H    0.189062
    38  H    0.176919
    39  H    0.177094
    40  C   -0.449770
    41  H    0.180392
    42  H    0.164311
    43  H    0.177675
    44  C    0.165784
    45  H    0.159613
 Sum of Mulliken charges =   0.00000

 Dipole moment (field-independent basis, Debye):
    X=             -6.8862    Y=             -0.6684    Z=              1.1580  Tot=              7.0148
 Quadrupole moment (field-independent basis, Debye-Ang):
   XX=           -144.1098   YY=           -123.2596   ZZ=           -131.6992
   XY=             -5.7937   XZ=             -6.5543   YZ=             -1.3352

  Exact polarizability: 264.841  -0.732 204.518  -5.465  -9.247 172.891
 Approx polarizability: 453.995  -4.847 400.180 -10.026 -49.087 300.441

                      1                      2                      3
                      A                      A                      A
 Frequencies --     36.6432                63.2640                86.9860
 Red. masses --      4.4353                 4.7822                 4.7287
 Frc consts  --      0.0035                 0.0113                 0.0211
 IR Inten    --      4.1779                 0.1719                 0.1478

                      4                      5                      6
                      A                      A                      A
 Frequencies --     90.7795               119.4005               132.2912
 Red. masses --      4.8419                 3.5877                 3.3796
 Frc consts  --      0.0235                 0.0301                 0.0348
 IR Inten    --      2.0908                 2.0125                 4.1640

                      7                      8                      9
                      A                      A                      A
 Frequencies --    139.4872               163.4145               169.8999
 Red. masses --      4.1500                 4.5156                 3.7558
 Frc consts  --      0.0476                 0.0710                 0.0639
 IR Inten    --      3.7622                 2.4866                 3.5204

                     10                     11                     12
                      A                      A                      A
 Frequencies --    173.8328               195.5914               204.2974
 Red. masses --      3.1658                 2.9391                 1.9115
 Frc consts  --      0.0564                 0.0662                 0.0470
 IR Inten    --      3.2382                 5.7755                 2.3974

                     13                     14                     15
                      A                      A                      A
 Frequencies --    214.9259               236.1039               245.2248
 Red. masses --      1.7106                 2.7474                 1.3931
 Frc consts  --      0.0466                 0.0902                 0.0494
 IR Inten    --      2.8472                 1.8890                 0.5123

                     16                     17                     18
                      A                      A                      A
 Frequencies --    253.5921               278.2715               293.5247
 Red. masses --      1.9317                 3.0420                 2.7765
 Frc consts  --      0.0732                 0.1388                 0.1409
 IR Inten    --      3.7408                 3.9164                 0.3284

                     19                     20                     21
                      A                      A                      A
 Frequencies --    312.2434               339.6376               350.8793
 Red. masses --      3.7269                 3.6261                 2.7709
 Frc consts  --      0.2141                 0.2464                 0.2010
 IR Inten    --      1.8815                23.8088                 1.4324

                     22                     23                     24
                      A                      A                      A
 Frequencies --    379.3262               394.3108               434.7642
 Red. masses --      5.1083                 3.2516                 4.2953
 Frc consts  --      0.4331                 0.2979                 0.4784
 IR Inten    --      5.2966                 1.4098                13.1773

                     25                     26                     27
                      A                      A                      A
 Frequencies --    449.4290               487.0253               502.0593
 Red. masses --      3.1541                 4.5241                 3.0004
 Frc consts  --      0.3754                 0.6322                 0.4456
 IR Inten    --      5.4320                 2.8019                10.7186

                     28                     29                     30
                      A                      A                      A
 Frequencies --    514.3736               533.2904               562.2851
 Red. masses --      1.5842                 3.0651                 2.1103
 Frc consts  --      0.2470                 0.5136                 0.3931
 IR Inten    --     32.3498                 4.2288                 5.6351

                     31                     32                     33
                      A                      A                      A
 Frequencies --    566.5389               600.5746               610.2032
 Red. masses --      3.9839                 3.3034                 2.9954
 Frc consts  --      0.7534                 0.7020                 0.6571
 IR Inten    --      0.7268                 2.7310                 2.3519

                     34                     35                     36
                      A                      A                      A
 Frequencies --    637.4157               644.7784               670.0460
 Red. masses --      3.1615                 4.6522                 7.3234
 Frc consts  --      0.7568                 1.1395                 1.9372
 IR Inten    --      1.6561                 4.6406                10.5085

                     37                     38                     39
                      A                      A                      A
 Frequencies --    727.3601               730.3581               738.2420
 Red. masses --      1.6277                 3.1854                 4.4549
 Frc consts  --      0.5074                 1.0011                 1.4305
 IR Inten    --     16.8209                 8.5852                 4.9551

                     40                     41                     42
                      A                      A                      A
 Frequencies --    785.0587               788.6573               803.6298
 Red. masses --      5.0141                 3.5932                 1.3405
 Frc consts  --      1.8207                 1.3168                 0.5101
 IR Inten    --      0.3605                17.5905                69.8599

                     43                     44                     45
                      A                      A                      A
 Frequencies --    834.7198               852.3759               856.4424
 Red. masses --      1.4619                 1.9140                 2.1400
 Frc consts  --      0.6001                 0.8193                 0.9248
 IR Inten    --    140.5362                 1.7532                92.1110

                     46                     47                     48
                      A                      A                      A
 Frequencies --    857.8346               888.4082               898.4754
 Red. masses --      1.3101                 3.0141                 2.7318
 Frc consts  --      0.5680                 1.4016                 1.2993
 IR Inten    --      5.8895                 8.3350                 3.0404

                     49                     50                     51
                      A                      A                      A
 Frequencies --    906.9036               932.2647               951.2695
 Red. masses --      1.5594                 2.0644                 1.7082
 Frc consts  --      0.7557                 1.0571                 0.9108
 IR Inten    --      1.8040                 1.6315                13.8928

                     52                     53                     54
                      A                      A                      A
 Frequencies --    980.6419               991.0614               998.9060
 Red. masses --      3.0732                 1.8834                 2.1723
 Frc consts  --      1.7413                 1.0899                 1.2771
 IR Inten    --      3.8712                16.7178               110.6759

                     55                     56                     57
                      A                      A                      A
 Frequencies --   1009.5030              1015.1898              1021.4986
 Red. masses --      1.4812                 1.9610                 1.5522
 Frc consts  --      0.8894                 1.1908                 0.9543
 IR Inten    --      6.9741                 8.8309                16.0110

                     58                     59                     60
                      A                      A                      A
 Frequencies --   1032.3817              1047.7139              1063.0746
 Red. masses --      2.5403                 1.3582                 2.2736
 Frc consts  --      1.5952                 0.8784                 1.5139
 IR Inten    --      0.9681                 0.1145                26.1809

                     61                     62                     63
                      A                      A                      A
 Frequencies --   1070.3568              1082.7152              1094.3480
 Red. masses --      3.1103                 1.7534                 1.5536
 Frc consts  --      2.0995                 1.2110                 1.0962
 IR Inten    --      2.3895                 8.2936                 0.3338

                     64                     65                     66
                      A                      A                      A
 Frequencies --   1102.8861              1110.3163              1113.5972
 Red. masses --      2.4245                 1.5947                 2.8000
 Frc consts  --      1.7375                 1.1583                 2.0458
 IR Inten    --     16.2461                 2.2859                 2.7967

                     67                     68                     69
                      A                      A                      A
 Frequencies --   1117.5042              1167.3730              1200.6375
 Red. masses --      2.4720                 1.1523                 1.3566
 Frc consts  --      1.8188                 0.9252                 1.1522
 IR Inten    --      9.7062                 2.4139                46.6988

                     70                     71                     72
                      A                      A                      A
 Frequencies --   1213.4059              1218.1933              1222.7852
 Red. masses --      1.6590                 1.1291                 1.2850
 Frc consts  --      1.4391                 0.9872                 1.1320
 IR Inten    --     14.3855                 2.3800                33.2020

                     73                     74                     75
                      A                      A                      A
 Frequencies --   1225.3141              1235.5138              1245.5121
 Red. masses --      1.1366                 2.5722                 1.8769
 Frc consts  --      1.0054                 2.3134                 1.7155
 IR Inten    --     33.9160                18.5080                 4.0801

                     76                     77                     78
                      A                      A                      A
 Frequencies --   1249.1755              1281.3467              1287.1368
 Red. masses --      1.8805                 1.5439                 1.7542
 Frc consts  --      1.7289                 1.4935                 1.7123
 IR Inten    --      9.7872                17.5619                10.2695

                     79                     80                     81
                      A                      A                      A
 Frequencies --   1323.9580              1333.3335              1334.6216
 Red. masses --      1.2711                 2.3830                 2.0458
 Frc consts  --      1.3127                 2.4960                 2.1470
 IR Inten    --      7.0452                 8.3111                 8.5384

                     82                     83                     84
                      A                      A                      A
 Frequencies --   1356.2430              1367.6165              1372.8652
 Red. masses --      1.5501                 1.9195                 2.9754
 Frc consts  --      1.6799                 2.1153                 3.3040
 IR Inten    --     37.9823                30.5806                 9.9736

                     85                     86                     87
                      A                      A                      A
 Frequencies --   1379.2940              1403.0150              1431.0415
 Red. masses --      1.6630                 4.5694                 3.4339
 Frc consts  --      1.8641                 5.2995                 4.1433
 IR Inten    --      6.9470                19.1254                14.8802

                     88                     89                     90
                      A                      A                      A
 Frequencies --   1455.6591              1457.2167              1462.6266
 Red. masses --      1.3811                 1.2057                 1.2704
 Frc consts  --      1.7242                 1.5084                 1.6013
 IR Inten    --      9.6155                 1.9402                 8.6526

                     91                     92                     93
                      A                      A                      A
 Frequencies --   1472.0817              1488.4958              1499.0714
 Red. masses --      1.7585                 1.0842                 1.0854
 Frc consts  --      2.2452                 1.4153                 1.4371
 IR Inten    --      5.9095                11.4425                 7.4702

                     94                     95                     96
                      A                      A                      A
 Frequencies --   1507.3471              1517.0874              1527.0289
 Red. masses --      1.9007                 1.2253                 1.0818
 Frc consts  --      2.5445                 1.6616                 1.4862
 IR Inten    --     19.5359               219.8668                 2.8128

                     97                     98                     99
                      A                      A                      A
 Frequencies --   1534.4084              1538.8803              1546.0714
 Red. masses --      1.1216                 1.0940                 1.1575
 Frc consts  --      1.5558                 1.5264                 1.6302
 IR Inten    --     16.1651                 4.8948                13.7860

                    100                    101                    102
                      A                      A                      A
 Frequencies --   1558.5471              1571.5252              1603.8050
 Red. masses --      1.1922                 1.9141                 5.2880
 Frc consts  --      1.7062                 2.7852                 8.0139
 IR Inten    --      7.4953                18.3215                27.3109

                    103                    104                    105
                      A                      A                      A
 Frequencies --   1632.0710              1636.8879              1654.3002
 Red. masses --      5.2246                 5.1779                 5.1498
 Frc consts  --      8.1994                 8.1742                 8.3037
 IR Inten    --     32.1250               225.3902                 1.4370

                    106                    107                    108
                      A                      A                      A
 Frequencies --   1748.5429              2993.7041              2996.3625
 Red. masses --      1.0681                 1.0646                 1.0594
 Frc consts  --      1.9240                 5.6216                 5.6038
 IR Inten    --      9.1577                 7.6081                16.9387

                    109                    110                    111
                      A                      A                      A
 Frequencies --   3003.7672              3012.6051              3015.9169
 Red. masses --      1.0794                 1.0392                 1.0956
 Frc consts  --      5.7382                 5.5570                 5.8714
 IR Inten    --     14.8383                27.4290                 3.8868

                    112                    113                    114
                      A                      A                      A
 Frequencies --   3020.3402              3026.2894              3030.5753
 Red. masses --      1.0436                 1.0739                 1.0903
 Frc consts  --      5.6092                 5.7946                 5.8999
 IR Inten    --     19.8157                90.0245                 3.6640

                    115                    116                    117
                      A                      A                      A
 Frequencies --   3058.4832              3064.4072              3103.6075
 Red. masses --      1.0957                 1.0967                 1.0969
 Frc consts  --      6.0389                 6.0677                 6.2252
 IR Inten    --     10.5510                13.3438                 9.8115

                    118                    119                    120
                      A                      A                      A
 Frequencies --   3121.4054              3144.7941              3181.2063
 Red. masses --      1.0906                 1.0914                 1.0859
 Frc consts  --      6.2604                 6.3593                 6.4749
 IR Inten    --     35.2947                 6.0263                 1.6327

                    121                    122                    123
                      A                      A                      A
 Frequencies --   3193.1801              3206.8193              3215.7774
 Red. masses --      1.0887                 1.0928                 1.0938
 Frc consts  --      6.5405                 6.6210                 6.6643
 IR Inten    --     11.3290                16.1932                12.5163

                    124                    125                    126
                      A                      A                      A
 Frequencies --   3223.2882              3235.0003              3238.3791
 Red. masses --      1.0604                 1.0881                 1.0917
 Frc consts  --      6.4911                 6.7094                 6.7452
 IR Inten    --     36.1964                 2.9543                 2.3856

                    127                    128                    129
                      A                      A                      A
 Frequencies --   3244.5249              3258.9163              3316.6469
 Red. masses --      1.0922                 1.0639                 1.0805
 Frc consts  --      6.7741                 6.6570                 7.0030
 IR Inten    --      3.4381               297.3949                17.6157

 - Thermochemistry -
 -------------------
 Temperature   298.150 Kelvin.  Pressure   1.00000 Atm.
 Atom     1 has atomic number  6 and mass  12.00000

 Molecular mass:   297.17288 amu.
 Principal axes and moments of inertia in atomic units:
                           1         2         3
     Eigenvalues --  3859.674177033.937857457.65273
           X            0.99967  -0.02563  -0.00232
           Y            0.02516   0.99231  -0.12119
           Z            0.00541   0.12109   0.99263
 This molecule is an asymmetric top.
 Rotational symmetry number  1.
 Warning -- assumption of classical behavior for rotation
           may cause significant error
 Rotational temperatures (Kelvin)      0.02244     0.01231     0.01161
 Rotational constants (GHZ):           0.46759     0.25658     0.24200
 Zero-point vibrational energy    1008789.5 (Joules/Mol)
                                  241.10649 (Kcal/Mol)
 Warning -- explicit consideration of  33 degrees of freedom as
           vibrations may cause significant error
 Vibrational temperatures:     52.72    91.02   125.15   130.61   171.79
          (Kelvin)            190.34   200.69   235.12   244.45   250.11
                              281.41   293.94   309.23   339.70   352.82
                              364.86   400.37   422.32   449.25   488.66
                              504.84   545.77   567.33   625.53   646.63
                              700.72   722.35   740.07   767.29   809.00
                              815.12   864.09   877.95   917.10   927.69
                              964.05  1046.51  1050.82  1062.17  1129.52
                             1134.70  1156.24  1200.98  1226.38  1232.23
                             1234.23  1278.22  1292.71  1304.83  1341.32
                             1368.66  1410.92  1425.92  1437.20  1452.45
                             1460.63  1469.71  1485.37  1507.43  1529.53
                             1540.00  1557.79  1574.52  1586.81  1597.50
                             1602.22  1607.84  1679.59  1727.45  1745.82
                             1752.71  1759.32  1762.95  1777.63  1792.01
                             1797.28  1843.57  1851.90  1904.88  1918.37
                             1920.22  1951.33  1967.70  1975.25  1984.50
                             2018.63  2058.95  2094.37  2096.61  2104.39
                             2118.00  2141.61  2156.83  2168.74  2182.75
                             2197.05  2207.67  2214.11  2224.45  2242.40
                             2261.07  2307.52  2348.19  2355.12  2380.17
                             2515.76  4307.27  4311.10  4321.75  4334.47
                             4339.23  4345.60  4354.16  4360.32  4400.48
                             4409.00  4465.40  4491.01  4524.66  4577.05
                             4594.27  4613.90  4626.79  4637.59  4654.44
                             4659.31  4668.15  4688.85  4771.92

 Zero-point correction=                           0.384228 (Hartree/Particle)
 Thermal correction to Energy=                    0.404267
 Thermal correction to Enthalpy=                  0.405212
 Thermal correction to Gibbs Free Energy=         0.337602
 Sum of electronic and zero-point Energies=           -937.238957
 Sum of electronic and thermal Energies=              -937.218917
 Sum of electronic and thermal Enthalpies=            -937.217973
 Sum of electronic and thermal Free Energies=         -937.285583

                     E (Thermal)             CV                S
                      KCal/Mol        Cal/Mol-Kelvin    Cal/Mol-Kelvin
 Total                  253.682             80.524            142.297
 Electronic               0.000              0.000              0.000
 Translational            0.889              2.981             42.965
 Rotational               0.889              2.981             33.670
 Vibrational            251.904             74.562             65.663
 Vibration     1          0.594              1.982              5.433
 Vibration     2          0.597              1.972              4.353
 Vibration     3          0.601              1.958              3.727
 Vibration     4          0.602              1.956              3.643
 Vibration     5          0.609              1.933              3.110
 Vibration     6          0.612              1.921              2.912
 Vibration     7          0.615              1.914              2.811
 Vibration     8          0.623              1.887              2.510
 Vibration     9          0.625              1.880              2.437
 Vibration    10          0.627              1.875              2.394
 Vibration    11          0.636              1.846              2.174
 Vibration    12          0.640              1.834              2.094
 Vibration    13          0.645              1.818              2.001
 Vibration    14          0.655              1.785              1.832
 Vibration    15          0.660              1.771              1.765
 Vibration    16          0.665              1.757              1.705
 Vibration    17          0.679              1.714              1.544
 Vibration    18          0.688              1.686              1.454
 Vibration    19          0.701              1.650              1.350
 Vibration    20          0.720              1.596              1.214
 Vibration    21          0.728              1.573              1.162
 Vibration    22          0.749              1.514              1.042
 Vibration    23          0.761              1.482              0.984
 Vibration    24          0.795              1.394              0.843
 Vibration    25          0.808              1.362              0.798
 Vibration    26          0.843              1.279              0.691
 Vibration    27          0.857              1.245              0.653
 Vibration    28          0.869              1.218              0.623
 Vibration    29          0.888              1.176              0.580
 Vibration    30          0.918              1.113              0.519
 Vibration    31          0.922              1.104              0.511
 Vibration    32          0.959              1.031              0.449
 Vibration    33          0.969              1.010              0.432

                           ! Non-Optimized Parameters !

 1\1\GINC-HOLY7C01308\Freq\RB3LYP\MIDIx\C19H23N1O2\ROOT\07-Dec-2017\0\\
 #P Geom=AllCheck Guess=TCheck SCRF=Check GenChk RB3LYP/MIDIx Freq\\Com
 plex\\0,1\C,-0.7406329981,0.6215178202,-1.31639346\C,-1.4541556932,0.4
 666921378,-2.552980673\C,-2.6348539183,-0.4242155245,-2.4555124089\C,-
 2.5314373964,-1.0150626072,-1.0126369399\C,-1.3434457464,-0.3384182499
 ,-0.4367705769\H,-1.2158284504,1.0662150985,-3.4247985863\H,-3.5774901
 375,0.1339444227,-2.5942720811\H,-2.6275123895,-1.2203638145,-3.216707
 8207\H,-3.4446628177,-0.8270774309,-0.4226717789\H,-2.4047755939,-2.11

 Normal termination of Gaussian 16 at Thu Dec  7 21:15:04 2017.
