 Gaussian 16, Revision A.03,
 Gaussian 16:  ES64L-G16RevA.03 25-Dec-2016

 ---------------------------------------------------------
 #p b3lyp empiricaldispersion=gd3bj 6-31g opt freq=noraman
 ---------------------------------------------------------

 -------
 Complex
 -------
 Symbolic Z-matrix:
 Charge =  0 Multiplicity = 1

 SCF Done:  E(RB3LYP) =  -941.793501391     A.U. after   19 cycles
 SCF Done:  E(RB3LYP) =  -942.147770539     A.U. after   17 cycles
 SCF Done:  E(RB3LYP) =  -942.403402727     A.U. after   17 cycles
 SCF Done:  E(RB3LYP) =  -942.446355392     A.U. after   17 cycles
 SCF Done:  E(RB3LYP) =  -942.603502935     A.U. after   16 cycles
 SCF Done:  E(RB3LYP) =  -942.611762247     A.U. after   17 cycles
 SCF Done:  E(RB3LYP) =  -942.732994481     A.U. after   15 cycles
 SCF Done:  E(RB3LYP) =  -942.752426581     A.U. after   15 cycles
 SCF Done:  E(RB3LYP) =  -942.782462232     A.U. after   16 cycles
 SCF Done:  E(RB3LYP) =  -942.799375524     A.U. after   14 cycles
 SCF Done:  E(RB3LYP) =  -942.854312236     A.U. after    9 cycles
 SCF Done:  E(RB3LYP) =  -942.854312914     A.U. after    9 cycles
 SCF Done:  E(RB3LYP) =  -942.854313248     A.U. after    8 cycles
 SCF Done:  E(RB3LYP) =  -942.854313411     A.U. after    8 cycles
 SCF Done:  E(RB3LYP) =  -942.854313498     A.U. after    8 cycles
 SCF Done:  E(RB3LYP) =  -942.854313581     A.U. after    8 cycles
 SCF Done:  E(RB3LYP) =  -942.854313677     A.U. after    9 cycles
 SCF Done:  E(RB3LYP) =  -942.854313748     A.U. after    8 cycles
 SCF Done:  E(RB3LYP) =  -942.854313795     A.U. after    8 cycles
 Optimization completed.
    -- Stationary point found.

 1\1\GINC-HOLY7C05108\FOpt\RB3LYP\6-31G\C19H23N1O2\ROOT\05-Dec-2017\0\\
 #p b3lyp empiricaldispersion=gd3bj 6-31g opt freq=noraman\\Complex\\0,
 1\C,-0.8205733848,0.7119572315,-1.2740371209\C,-1.4953028386,0.5891040
 462,-2.530712307\C,-2.6609925613,-0.3246021577,-2.4921808711\C,-2.6032
 726953,-0.9388023474,-1.0692723853\C,-1.4581496787,-0.248803007,-0.428
 4918802\H,-1.218568496,1.1759461034,-3.3983594709\H,-3.6047755142,0.21
 7576825,-2.6629399483\H,-2.6133507481,-1.0972825642,-3.2723452945\H,-3
 .5407268619,-0.7966195545,-0.5105836502\H,-2.445061432,-2.0276493893,-

 Normal termination of Gaussian 16 at Tue Dec  5 18:00:51 2017.

 -----------------------------------------------------------------
 #P Geom=AllCheck Guess=TCheck SCRF=Check GenChk RB3LYP/6-31G Freq
 -----------------------------------------------------------------

 Structure from the checkpoint file:  "/scratch/dhuang9_oac_cat4_nocp_b3lyp_d3bj_631g/Gau-194959.chk"
 -------
 Complex
 -------
 Charge =  0 Multiplicity = 1

                         Standard orientation:
 ---------------------------------------------------------------------
 Center     Atomic      Atomic             Coordinates (Angstroms)
 Number     Number       Type             X           Y           Z
 ---------------------------------------------------------------------
      1          6           0        0.945287    1.621603    1.069294
      2          6           0       -0.248703    2.355551    0.777242
      3          6           0       -1.391451    2.003197    1.651970
      4          6           0       -0.863302    0.808501    2.488033
      5          6           0        0.546466    0.663326    2.052735
      6          1           0       -0.277653    3.147418    0.038402
      7          1           0       -1.685192    2.849696    2.293062
      8          1           0       -2.290105    1.734628    1.079037
      9          1           0       -0.948863    0.981845    3.571454
     10          1           0       -1.447383   -0.102339    2.282447
     11          1           0        1.229695   -0.063362    2.476120
     12          8           0        2.106488    1.771990    0.523765
     13          7           0        4.098141   -0.315916    0.927620
     14          1           0        3.663164    0.590802    1.098623
     15          1           0        4.928609   -0.219351    0.352688
     16          6           0        3.142070   -1.267415    0.389144
     17          1           0        3.633774   -2.242641    0.298805
     18          1           0        2.341718   -1.381704    1.122546
     19          8           0        3.144238    0.285884   -1.559417
     20          1           0        2.938982    1.021448   -0.920271
     21          6           0        0.981448   -0.705135   -0.991895
     22          6           0        0.110183   -1.570792   -0.326961
     23          6           0        0.452616    0.419672   -1.672592
     24          6           0       -1.288536   -1.234144   -0.243304
     25          6           0       -0.886460    0.763607   -1.644634
     26          1           0        1.154319    1.033935   -2.220079
     27          6           0       -2.199068   -2.021372    0.515458
     28          6           0       -1.795561   -0.065453   -0.906100
     29          6           0       -3.538495   -1.683605    0.618368
     30          1           0       -1.836053   -2.900616    1.033195
     31          6           0       -3.178023    0.241044   -0.801886
     32          6           0       -4.036193   -0.546307   -0.052602
     33          1           0       -4.208132   -2.298699    1.210209
     34          1           0       -3.565902    1.109534   -1.321573
     35          1           0       -5.088675   -0.292767    0.016796
     36          6           0        0.559077   -2.914330    0.212272
     37          1           0        1.556799   -3.177341   -0.137247
     38          1           0        0.574923   -2.950975    1.308659
     39          1           0       -0.121649   -3.702744   -0.128047
     40          6           0       -1.386671    1.947528   -2.438623
     41          1           0       -2.058142    1.631821   -3.247512
     42          1           0       -1.946581    2.658633   -1.818661
     43          1           0       -0.548760    2.484789   -2.890190
     44          6           0        2.502025   -0.894599   -1.023891
     45          1           0        2.748045   -1.688848   -1.738744
 ---------------------------------------------------------------------

 SCF Done:  E(RB3LYP) =  -942.854313795     A.U. after    1 cycles

 The electronic state is 1-A.
 Alpha  occ. eigenvalues --  -19.10112 -19.07892 -14.26821 -10.24904 -10.23455
 Alpha  occ. eigenvalues --  -10.23026 -10.21746 -10.21296 -10.21221 -10.20745
 Alpha  occ. eigenvalues --  -10.20584 -10.20559 -10.20420 -10.20174 -10.20137
 Alpha  occ. eigenvalues --  -10.20065 -10.20033 -10.19382 -10.18647 -10.18604
 Alpha  occ. eigenvalues --  -10.18444 -10.18042  -0.99089  -0.97739  -0.88960
 Alpha  occ. eigenvalues --   -0.87021  -0.84802  -0.83723  -0.81067  -0.75948
 Alpha  occ. eigenvalues --   -0.74982  -0.73831  -0.73119  -0.71650  -0.69538
 Alpha  occ. eigenvalues --   -0.66523  -0.63367  -0.62201  -0.60137  -0.58893
 Alpha  occ. eigenvalues --   -0.57205  -0.55171  -0.52117  -0.51579  -0.49921
 Alpha  occ. eigenvalues --   -0.49353  -0.48910  -0.47526  -0.46674  -0.45280
 Alpha  occ. eigenvalues --   -0.44365  -0.43572  -0.43217  -0.42976  -0.42381
 Alpha  occ. eigenvalues --   -0.42144  -0.41555  -0.40177  -0.39952  -0.39587
 Alpha  occ. eigenvalues --   -0.39375  -0.38964  -0.38710  -0.38128  -0.37752
 Alpha  occ. eigenvalues --   -0.37602  -0.37041  -0.36693  -0.34660  -0.33866
 Alpha  occ. eigenvalues --   -0.33152  -0.31590  -0.28870  -0.28058  -0.24981
 Alpha  occ. eigenvalues --   -0.23946  -0.22497  -0.22198  -0.20965  -0.18825
 Alpha virt. eigenvalues --   -0.11472  -0.04898  -0.01374   0.02494   0.06415
 Alpha virt. eigenvalues --    0.07721   0.08034   0.08988   0.09252   0.09960
 Alpha virt. eigenvalues --    0.10946   0.11530   0.12744   0.13354   0.13849

 Mulliken charges:
               1
     1  C    0.355903
     2  C   -0.071577
     3  C   -0.335460
     4  C   -0.335742
     5  C   -0.082088
     6  H    0.164895
     7  H    0.173995
     8  H    0.187975
     9  H    0.168924
    10  H    0.194104
    11  H    0.176105
    12  O   -0.637559
    13  N   -0.698747
    14  H    0.306657
    15  H    0.274640
    16  C   -0.133642
    17  H    0.127157
    18  H    0.128217
    19  O   -0.627071
    20  H    0.393258
    21  C    0.030846
    22  C    0.051903
    23  C   -0.180424
    24  C    0.021201
    25  C    0.078503
    26  H    0.159548
    27  C   -0.172942
    28  C    0.040498
    29  C   -0.126404
    30  H    0.133364
    31  C   -0.174785
    32  C   -0.126874
    33  H    0.129217
    34  H    0.132690
    35  H    0.129136
    36  C   -0.482654
    37  H    0.160951
    38  H    0.151813
    39  H    0.153927
    40  C   -0.480210
    41  H    0.158406
    42  H    0.138653
    43  H    0.159331
    44  C    0.036430
    45  H    0.147933
 Sum of Mulliken charges =   0.00000

 Dipole moment (field-independent basis, Debye):
    X=             -7.3212    Y=             -0.2808    Z=              2.0756  Tot=              7.6149
 Quadrupole moment (field-independent basis, Debye-Ang):
   XX=           -142.5383   YY=           -122.4628   ZZ=           -130.3674
   XY=             -8.5872   XZ=             -3.9938   YZ=             -1.3220

  Exact polarizability: 273.275  -3.236 208.069  -8.319 -16.333 178.980
 Approx polarizability: 461.646 -11.276 384.854 -18.331 -74.056 315.489

                      1                      2                      3
                      A                      A                      A
 Frequencies --     34.9117                56.1527                70.4474
 Red. masses --      4.3885                 5.0031                 4.5715
 Frc consts  --      0.0032                 0.0093                 0.0134
 IR Inten    --      4.4100                 0.2667                 0.5103

                      4                      5                      6
                      A                      A                      A
 Frequencies --     79.6133               108.1368               126.1458
 Red. masses --      4.3207                 3.8436                 4.3869
 Frc consts  --      0.0161                 0.0265                 0.0411
 IR Inten    --      0.3686                 2.5016                 7.6617

                      7                      8                      9
                      A                      A                      A
 Frequencies --    133.4353               147.6336               156.1408
 Red. masses --      3.0674                 5.2834                 4.2052
 Frc consts  --      0.0322                 0.0678                 0.0604
 IR Inten    --      0.0987                 0.7495                 1.3366

                     10                     11                     12
                      A                      A                      A
 Frequencies --    163.8776               183.7401               193.5963
 Red. masses --      2.6782                 3.1849                 2.1858
 Frc consts  --      0.0424                 0.0634                 0.0483
 IR Inten    --     11.8879                 4.6868                 0.8498

                     13                     14                     15
                      A                      A                      A
 Frequencies --    204.3075               223.4909               230.1176
 Red. masses --      1.3580                 2.7468                 1.2571
 Frc consts  --      0.0334                 0.0808                 0.0392
 IR Inten    --      0.9839                 2.5774                 0.1328

                     16                     17                     18
                      A                      A                      A
 Frequencies --    240.0965               260.6287               289.1780
 Red. masses --      2.0860                 2.9029                 2.9099
 Frc consts  --      0.0709                 0.1162                 0.1434
 IR Inten    --      7.4359                 6.1735                 0.3341

                     19                     20                     21
                      A                      A                      A
 Frequencies --    305.6636               324.8839               343.9403
 Red. masses --      3.5047                 2.9968                 2.9081
 Frc consts  --      0.1929                 0.1864                 0.2027
 IR Inten    --     10.0883                36.6645                 0.6465

                     22                     23                     24
                      A                      A                      A
 Frequencies --    371.3231               385.5377               436.2666
 Red. masses --      4.7833                 3.4146                 2.7972
 Frc consts  --      0.3886                 0.2990                 0.3137
 IR Inten    --      7.5133                 2.6623                18.1329

                     25                     26                     27
                      A                      A                      A
 Frequencies --    438.9534               458.1274               481.9269
 Red. masses --      3.1191                 1.7038                 4.5043
 Frc consts  --      0.3541                 0.2107                 0.6164
 IR Inten    --     20.0487                44.7706                 2.8411

                     28                     29                     30
                      A                      A                      A
 Frequencies --    500.6650               520.5972               538.8211
 Red. masses --      4.3474                 4.1539                 2.0614
 Frc consts  --      0.6421                 0.6633                 0.3526
 IR Inten    --      1.8017                 0.9486                 5.7854

                     31                     32                     33
                      A                      A                      A
 Frequencies --    563.0837               592.4131               605.4538
 Red. masses --      3.9767                 3.4124                 3.2057
 Frc consts  --      0.7429                 0.7056                 0.6924
 IR Inten    --      0.1295                 1.6093                10.9666

                     34                     35                     36
                      A                      A                      A
 Frequencies --    626.0052               647.7241               667.2399
 Red. masses --      3.2387                 3.8600                 7.8765
 Frc consts  --      0.7478                 0.9541                 2.0661
 IR Inten    --      2.4530                22.0654                 9.8517

                     37                     38                     39
                      A                      A                      A
 Frequencies --    712.4582               715.0786               734.9354
 Red. masses --      2.2347                 1.8836                 4.9269
 Frc consts  --      0.6683                 0.5675                 1.5679
 IR Inten    --      6.3525                13.0883                 5.2771

                     40                     41                     42
                      A                      A                      A
 Frequencies --    758.3688               785.3270               791.3855
 Red. masses --      1.3794                 4.7858                 1.5798
 Frc consts  --      0.4674                 1.7390                 0.5829
 IR Inten    --    431.5104                 4.6639                47.9738

                     43                     44                     45
                      A                      A                      A
 Frequencies --    792.3422               801.4305               847.9266
 Red. masses --      2.6268                 3.1741                 1.1800
 Frc consts  --      0.9716                 1.2012                 0.4998
 IR Inten    --     20.5047                15.2528                 0.7551

                     46                     47                     48
                      A                      A                      A
 Frequencies --    850.1832               899.9458               903.0598
 Red. masses --      3.6710                 1.4975                 1.8487
 Frc consts  --      1.5634                 0.7146                 0.8883
 IR Inten    --     22.5165                 6.5159                41.5045

                     49                     50                     51
                      A                      A                      A
 Frequencies --    906.2259               922.4964               925.6910
 Red. masses --      1.5225                 2.8704                 1.8763
 Frc consts  --      0.7367                 1.4392                 0.9473
 IR Inten    --      1.7871                19.6853                60.6242

                     52                     53                     54
                      A                      A                      A
 Frequencies --    945.8148               981.2038               987.0688
 Red. masses --      1.6491                 1.3759                 1.5653
 Frc consts  --      0.8692                 0.7805                 0.8985
 IR Inten    --      8.7233                11.3078                 9.5709

                     55                     56                     57
                      A                      A                      A
 Frequencies --    989.5792              1005.4945              1018.2615
 Red. masses --      2.3944                 1.6760                 2.0316
 Frc consts  --      1.3815                 0.9984                 1.2411
 IR Inten    --     10.2136                13.8822                 1.8703

                     58                     59                     60
                      A                      A                      A
 Frequencies --   1022.9995              1036.7222              1043.8327
 Red. masses --      1.3374                 2.5456                 3.3321
 Frc consts  --      0.8247                 1.6120                 2.1391
 IR Inten    --      0.2357                22.2138                37.9385

                     61                     62                     63
                      A                      A                      A
 Frequencies --   1075.1008              1086.0458              1097.3947
 Red. masses --      2.9863                 1.4996                 1.7232
 Frc consts  --      2.0336                 1.0421                 1.2227
 IR Inten    --      0.8934                 0.8313                 7.7140

                     64                     65                     66
                      A                      A                      A
 Frequencies --   1100.2188              1103.2987              1112.9784
 Red. masses --      1.7697                 1.4490                 3.3728
 Frc consts  --      1.2621                 1.0392                 2.4616
 IR Inten    --      4.6797                 8.9755                 0.4698

                     67                     68                     69
                      A                      A                      A
 Frequencies --   1120.3550              1154.9517              1159.4512
 Red. masses --      2.0052                 1.1550                 2.8600
 Frc consts  --      1.4829                 0.9077                 2.2653
 IR Inten    --      1.9272                 1.6451                 1.8570

                     70                     71                     72
                      A                      A                      A
 Frequencies --   1203.6950              1211.0297              1217.3759
 Red. masses --      1.1297                 1.2563                 1.5710
 Frc consts  --      0.9644                 1.0855                 1.3718
 IR Inten    --      0.9026                 7.2117                 3.7403

                     73                     74                     75
                      A                      A                      A
 Frequencies --   1227.7939              1258.5153              1273.1231
 Red. masses --      1.1334                 2.0616                 2.2974
 Frc consts  --      1.0067                 1.9238                 2.1940
 IR Inten    --      1.9177                 6.0372                13.4215

                     76                     77                     78
                      A                      A                      A
 Frequencies --   1276.3681              1293.3129              1296.9603
 Red. masses --      2.1815                 1.3469                 1.9387
 Frc consts  --      2.0939                 1.3273                 1.9213
 IR Inten    --     15.1078                36.1206                 3.7351

                     79                     80                     81
                      A                      A                      A
 Frequencies --   1331.7265              1336.2267              1358.4386
 Red. masses --      1.3112                 1.8057                 1.8498
 Frc consts  --      1.3701                 1.8996                 2.0112
 IR Inten    --      2.7576                 4.3262                60.3817

                     82                     83                     84
                      A                      A                      A
 Frequencies --   1361.8169              1373.4062              1393.7607
 Red. masses --      1.8895                 3.2550                 4.0841
 Frc consts  --      2.0646                 3.6175                 4.6744
 IR Inten    --     57.2235                10.8258                 3.1587

                     85                     86                     87
                      A                      A                      A
 Frequencies --   1403.9266              1418.8480              1433.2135
 Red. masses --      1.5584                 3.7062                 1.2133
 Frc consts  --      1.8098                 4.3959                 1.4684
 IR Inten    --      2.2968                15.8844                 7.3766

                     88                     89                     90
                      A                      A                      A
 Frequencies --   1439.6311              1461.1314              1464.1556
 Red. masses --      3.4886                 1.3564                 1.2256
 Frc consts  --      4.2600                 1.7061                 1.5480
 IR Inten    --     15.2525                 8.7338                10.8823

                     91                     92                     93
                      A                      A                      A
 Frequencies --   1474.1486              1476.1226              1490.0282
 Red. masses --      1.6821                 1.2957                 1.0974
 Frc consts  --      2.1537                 1.6633                 1.4355
 IR Inten    --     25.3967               103.1008                 6.0678

                     94                     95                     96
                      A                      A                      A
 Frequencies --   1502.8546              1510.8952              1524.4832
 Red. masses --      1.0812                 2.0852                 1.0796
 Frc consts  --      1.4388                 2.8046                 1.4783
 IR Inten    --     23.1205                 0.6997                 3.4999

                     97                     98                     99
                      A                      A                      A
 Frequencies --   1532.9701              1538.0213              1547.7231
 Red. masses --      1.0630                 1.1190                 1.1336
 Frc consts  --      1.4718                 1.5596                 1.5999
 IR Inten    --     10.6677                 0.7350                13.0957

                    100                    101                    102
                      A                      A                      A
 Frequencies --   1555.5566              1575.8789              1611.3372
 Red. masses --      1.1167                 2.5054                 5.2144
 Frc consts  --      1.5921                 3.6659                 7.9767
 IR Inten    --      9.7574                20.1054               168.1392

                    103                    104                    105
                      A                      A                      A
 Frequencies --   1620.3352              1648.6355              1667.6926
 Red. masses --      5.8005                 5.5199                 5.5360
 Frc consts  --      8.9728                 8.8396                 9.0715
 IR Inten    --     81.7140                42.6156                 1.7394

                    106                    107                    108
                      A                      A                      A
 Frequencies --   1749.4222              3013.9163              3016.6081
 Red. masses --      1.0829                 1.0617                 1.0643
 Frc consts  --      1.9526                 5.6823                 5.7064
 IR Inten    --     26.5429                 8.1164                18.8579

                    109                    110                    111
                      A                      A                      A
 Frequencies --   3036.1404              3040.6143              3044.7513
 Red. masses --      1.0383                 1.0949                 1.0468
 Frc consts  --      5.6391                 5.9643                 5.7177
 IR Inten    --     31.3236                 7.3824                14.7318

                    112                    113                    114
                      A                      A                      A
 Frequencies --   3046.6304              3052.6516              3065.0285
 Red. masses --      1.0742                 1.0926                 1.0715
 Frc consts  --      5.8746                 5.9989                 5.9306
 IR Inten    --     21.2100                 3.1284                71.9881

                    115                    116                    117
                      A                      A                      A
 Frequencies --   3088.8828              3099.1809              3132.1535
 Red. masses --      1.0978                 1.0965                 1.0963
 Frc consts  --      6.1710                 6.2050                 6.3366
 IR Inten    --     16.6434                17.6098                55.1918

                    118                    119                    120
                      A                      A                      A
 Frequencies --   3139.4191              3175.3834              3197.3103
 Red. masses --      1.0971                 1.0930                 1.0858
 Frc consts  --      6.3711                 6.4931                 6.5401
 IR Inten    --     12.4443                12.0414                 1.7825

                    121                    122                    123
                      A                      A                      A
 Frequencies --   3211.0966              3226.2378              3235.4236
 Red. masses --      1.0891                 1.0937                 1.0957
 Frc consts  --      6.6166                 6.7074                 6.7579
 IR Inten    --     13.1741                23.8601                20.0834

                    124                    125                    126
                      A                      A                      A
 Frequencies --   3247.1692              3248.4822              3250.2037
 Red. masses --      1.0923                 1.0901                 1.0930
 Frc consts  --      6.7857                 6.7779                 6.8029
 IR Inten    --      1.1319                 4.7599                 4.0241

                    127                    128                    129
                      A                      A                      A
 Frequencies --   3346.7540              3465.2065              3605.1957
 Red. masses --      1.0657                 1.0507                 1.0906
 Frc consts  --      7.0331                 7.4333                 8.3519
 IR Inten    --    138.2138                63.3129                20.1339

 - Thermochemistry -
 -------------------
 Temperature   298.150 Kelvin.  Pressure   1.00000 Atm.
 Atom     1 has atomic number  6 and mass  12.00000

 Molecular mass:   297.17288 amu.
 Principal axes and moments of inertia in atomic units:
                           1         2         3
     Eigenvalues --  4045.803527114.841717632.75797
           X            0.99959  -0.02849   0.00241
           Y            0.02857   0.99202  -0.12280
           Z            0.00111   0.12282   0.99243
 This molecule is an asymmetric top.
 Rotational symmetry number  1.
 Warning -- assumption of classical behavior for rotation
           may cause significant error
 Rotational temperatures (Kelvin)      0.02141     0.01217     0.01135
 Rotational constants (GHZ):           0.44608     0.25366     0.23645
 Zero-point vibrational energy    1011699.2 (Joules/Mol)
                                  241.80192 (Kcal/Mol)
 Warning -- explicit consideration of  33 degrees of freedom as
           vibrations may cause significant error
 Vibrational temperatures:     50.23    80.79   101.36   114.55   155.58
          (Kelvin)            181.50   191.98   212.41   224.65   235.78
                              264.36   278.54   293.95   321.55   331.09
                              345.45   374.99   416.06   439.78   467.44
                              494.85   534.25   554.70   627.69   631.56
                              659.14   693.39   720.35   749.02   775.24
                              810.15   852.35   871.11   900.68   931.93
                              960.01  1025.07  1028.84  1057.41  1091.12
                             1129.91  1138.63  1140.00  1153.08  1219.98
                             1223.22  1294.82  1299.30  1303.86  1327.27
                             1331.86  1360.82  1411.73  1420.17  1423.78
                             1446.68  1465.05  1471.87  1491.61  1501.84
                             1546.83  1562.58  1578.91  1582.97  1587.40
                             1601.33  1611.94  1661.72  1668.19  1731.85
                             1742.40  1751.53  1766.52  1810.72  1831.74
                             1836.41  1860.79  1866.04  1916.06  1922.53
                             1954.49  1959.35  1976.03  2005.31  2019.94
                             2041.41  2062.07  2071.31  2102.24  2106.59
                             2120.97  2123.81  2143.82  2162.27  2173.84
                             2193.39  2205.60  2212.87  2226.83  2238.10
                             2267.34  2318.35  2331.30  2372.02  2399.44
                             2517.03  4336.35  4340.23  4368.33  4374.77
                             4380.72  4383.42  4392.08  4409.89  4444.21
                             4459.03  4506.47  4516.92  4568.67  4600.22
                             4620.05  4641.84  4655.05  4671.95  4673.84
                             4676.32  4815.23  4985.66  5187.07

 Zero-point correction=                           0.385336 (Hartree/Particle)
 Thermal correction to Energy=                    0.405916
 Thermal correction to Enthalpy=                  0.406861
 Thermal correction to Gibbs Free Energy=         0.337638
 Sum of electronic and zero-point Energies=           -942.468978
 Sum of electronic and thermal Energies=              -942.448397
 Sum of electronic and thermal Enthalpies=            -942.447453
 Sum of electronic and thermal Free Energies=         -942.516675

                     E (Thermal)             CV                S
                      KCal/Mol        Cal/Mol-Kelvin    Cal/Mol-Kelvin
 Total                  254.716             81.581            145.691
 Electronic               0.000              0.000              0.000
 Translational            0.889              2.981             42.965
 Rotational               0.889              2.981             33.751
 Vibrational            252.939             75.619             68.975
 Vibration     1          0.594              1.983              5.529
 Vibration     2          0.596              1.975              4.588
 Vibration     3          0.598              1.968              4.141
 Vibration     4          0.600              1.963              3.900
 Vibration     5          0.606              1.943              3.302
 Vibration     6          0.611              1.927              3.004
 Vibration     7          0.613              1.920              2.896
 Vibration     8          0.617              1.905              2.703
 Vibration     9          0.620              1.896              2.596
 Vibration    10          0.623              1.887              2.505
 Vibration    11          0.631              1.862              2.290
 Vibration    12          0.635              1.849              2.193
 Vibration    13          0.640              1.834              2.094
 Vibration    14          0.649              1.805              1.931
 Vibration    15          0.652              1.795              1.878
 Vibration    16          0.657              1.779              1.802
 Vibration    17          0.669              1.745              1.658
 Vibration    18          0.686              1.694              1.479
 Vibration    19          0.696              1.663              1.386
 Vibration    20          0.709              1.626              1.285
 Vibration    21          0.723              1.588              1.194
 Vibration    22          0.743              1.531              1.074
 Vibration    23          0.754              1.501              1.017
 Vibration    24          0.797              1.391              0.838
 Vibration    25          0.799              1.385              0.830
 Vibration    26          0.816              1.343              0.772
 Vibration    27          0.838              1.290              0.705
 Vibration    28          0.856              1.249              0.656
 Vibration    29          0.876              1.204              0.609
 Vibration    30          0.894              1.164              0.568
 Vibration    31          0.919              1.111              0.518
 Vibration    32          0.950              1.048              0.463
 Vibration    33          0.964              1.020              0.440

                           ! Non-Optimized Parameters !

 1\1\GINC-HOLY7C05108\Freq\RB3LYP\6-31G\C19H23N1O2\ROOT\05-Dec-2017\0\\
 #P Geom=AllCheck Guess=TCheck SCRF=Check GenChk RB3LYP/6-31G Freq\\Com
 plex\\0,1\C,-0.8205733848,0.7119572315,-1.2740371209\C,-1.4953028386,0
 .5891040462,-2.530712307\C,-2.6609925613,-0.3246021577,-2.4921808711\C
 ,-2.6032726953,-0.9388023474,-1.0692723853\C,-1.4581496787,-0.24880300
 7,-0.4284918802\H,-1.218568496,1.1759461034,-3.3983594709\H,-3.6047755
 142,0.217576825,-2.6629399483\H,-2.6133507481,-1.0972825642,-3.2723452
 945\H,-3.5407268619,-0.7966195545,-0.5105836502\H,-2.445061432,-2.0276

 Normal termination of Gaussian 16 at Tue Dec  5 18:26:37 2017.
