 Gaussian 16, Revision A.03,
 Gaussian 16:  ES64L-G16RevA.03 25-Dec-2016

 ---------------------------------------------------------
 #p b3lyp empiricaldispersion=gd3bj 6-31g opt freq=noraman
 ---------------------------------------------------------

 -------
 Complex
 -------
 Symbolic Z-matrix:
 Charge =  0 Multiplicity = 1

 SCF Done:  E(RB3LYP) =  -863.871943776     A.U. after   24 cycles
 SCF Done:  E(RB3LYP) =  -864.077122921     A.U. after   24 cycles
 SCF Done:  E(RB3LYP) =  -864.145437171     A.U. after   21 cycles
 SCF Done:  E(RB3LYP) =  -864.187124506     A.U. after   20 cycles
 SCF Done:  E(RB3LYP) =  -863.921413031     A.U. after   20 cycles
 SCF Done:  E(RB3LYP) =  -864.190704083     A.U. after   16 cycles
 SCF Done:  E(RB3LYP) =  -864.167212766     A.U. after   18 cycles
 SCF Done:  E(RB3LYP) =  -864.204202377     A.U. after   17 cycles
 SCF Done:  E(RB3LYP) =  -864.209064569     A.U. after   18 cycles
 SCF Done:  E(RB3LYP) =  -864.209982347     A.U. after   17 cycles
 SCF Done:  E(RB3LYP) =  -864.241571830     A.U. after    9 cycles
 SCF Done:  E(RB3LYP) =  -864.241574450     A.U. after    9 cycles
 SCF Done:  E(RB3LYP) =  -864.241576837     A.U. after    9 cycles
 SCF Done:  E(RB3LYP) =  -864.241581429     A.U. after    9 cycles
 SCF Done:  E(RB3LYP) =  -864.241585509     A.U. after    9 cycles
 SCF Done:  E(RB3LYP) =  -864.241587625     A.U. after    9 cycles
 SCF Done:  E(RB3LYP) =  -864.241590063     A.U. after    9 cycles
 SCF Done:  E(RB3LYP) =  -864.241591988     A.U. after    9 cycles
 SCF Done:  E(RB3LYP) =  -864.241592210     A.U. after    8 cycles
 Optimization completed.
    -- Stationary point found.

 1\1\GINC-HOLY7C01311\FOpt\RB3LYP\6-31G\C17H19N1O2\ROOT\05-Dec-2017\0\\
 #p b3lyp empiricaldispersion=gd3bj 6-31g opt freq=noraman\\Complex\\0,
 1\N,2.1032415907,-1.1354064708,1.3277706263\H,2.0852200593,-0.18827205
 35,1.7138917199\H,2.5211970603,-1.802828464,1.9678485729\C,2.682851066
 ,-1.1809869298,-0.0216839962\H,3.782607251,-1.2437720308,-0.0197114044
 \H,2.3131204031,-2.0696525039,-0.5539768724\O,3.0252716565,1.240540005
 1,-0.311518048\H,2.5020713645,1.5664692879,0.4764727171\C,0.8614967282
 ,0.359680101,-1.0305799086\C,-0.1322597888,-0.5897688349,-0.8425763642

 Normal termination of Gaussian 16 at Tue Dec  5 18:12:30 2017.

 -----------------------------------------------------------------
 #P Geom=AllCheck Guess=TCheck SCRF=Check GenChk RB3LYP/6-31G Freq
 -----------------------------------------------------------------

 Structure from the checkpoint file:  "/scratch/dhuang9_oac_cat3_nocp_b3lyp_d3bj_631g/Gau-32557.chk"
 -------
 Complex
 -------
 Charge =  0 Multiplicity = 1

                         Standard orientation:
 ---------------------------------------------------------------------
 Center     Atomic      Atomic             Coordinates (Angstroms)
 Number     Number       Type             X           Y           Z
 ---------------------------------------------------------------------
      1          7           0       -2.876116    0.157350    1.751371
      2          1           0       -2.889679   -0.680240    1.164227
      3          1           0       -3.444067    0.050433    2.585541
      4          6           0       -3.178318    1.379485    0.993669
      5          1           0       -4.258373    1.566834    0.885092
      6          1           0       -2.753382    2.251513    1.512090
      7          8           0       -3.340265    0.348559   -1.237029
      8          1           0       -2.968613   -0.554093   -1.017961
      9          6           0       -1.121576    1.118251   -0.558886
     10          6           0       -0.231366    1.340008    0.481643
     11          6           0       -0.616263    0.670453   -1.807491
     12          6           0        1.175826    1.195215    0.299991
     13          1           0       -0.599529    1.638996    1.455511
     14          6           0        0.734742    0.454577   -1.996865
     15          1           0       -1.329421    0.460596   -2.594754
     16          6           0        2.102078    1.458154    1.344370
     17          6           0        1.673842    0.735815   -0.964169
     18          1           0        1.102914    0.102650   -2.956293
     19          6           0        3.460607    1.271602    1.153546
     20          1           0        1.723871    1.809208    2.300010
     21          6           0        3.072912    0.553064   -1.131067
     22          6           0        3.951153    0.814599   -0.094324
     23          1           0        4.156476    1.479909    1.959436
     24          1           0        3.443544    0.211682   -2.093531
     25          1           0        5.017844    0.675744   -0.234170
     26          6           0       -0.818742   -1.912537    0.020403
     27          6           0       -0.206758   -1.524836    1.257413
     28          6           0        1.212211   -1.935310    1.356116
     29          6           0        1.537879   -2.513082   -0.046106
     30          6           0        0.251405   -2.409366   -0.779166
     31          1           0       -0.767316   -1.012363    2.032598
     32          1           0        1.867304   -1.091547    1.613804
     33          1           0        1.359238   -2.680175    2.154555
     34          1           0        2.334847   -1.928443   -0.528488
     35          1           0        1.906599   -3.549400   -0.002879
     36          1           0        0.117323   -2.727347   -1.806565
     37          8           0       -2.066737   -1.792607   -0.302916
     38          6           0       -2.626224    1.326667   -0.439431
     39          1           0       -2.871195    2.290423   -0.906133
 ---------------------------------------------------------------------

 SCF Done:  E(RB3LYP) =  -864.241592210     A.U. after    1 cycles

 The electronic state is 1-A.
 Alpha  occ. eigenvalues --  -19.09123 -19.07802 -14.28180 -10.24567 -10.22835
 Alpha  occ. eigenvalues --  -10.22784 -10.22022 -10.20976 -10.20829 -10.20539
 Alpha  occ. eigenvalues --  -10.20468 -10.20125 -10.20116 -10.20002 -10.19965
 Alpha  occ. eigenvalues --  -10.19781 -10.19504 -10.19237 -10.18962 -10.18712
 Alpha  occ. eigenvalues --   -0.98581  -0.97128  -0.88673  -0.86698  -0.85731
 Alpha  occ. eigenvalues --   -0.83276  -0.78590  -0.75929  -0.73516  -0.73284
 Alpha  occ. eigenvalues --   -0.71338  -0.69829  -0.64112  -0.62155  -0.60891
 Alpha  occ. eigenvalues --   -0.59706  -0.57775  -0.54434  -0.52549  -0.51704
 Alpha  occ. eigenvalues --   -0.50296  -0.49126  -0.48981  -0.48263  -0.45924
 Alpha  occ. eigenvalues --   -0.45836  -0.44048  -0.43541  -0.43043  -0.42048
 Alpha  occ. eigenvalues --   -0.41748  -0.40615  -0.39913  -0.39261  -0.39090
 Alpha  occ. eigenvalues --   -0.38702  -0.38041  -0.37691  -0.36859  -0.36316
 Alpha  occ. eigenvalues --   -0.36210  -0.34842  -0.33550  -0.32028  -0.29152
 Alpha  occ. eigenvalues --   -0.28289  -0.25344  -0.23361  -0.22717  -0.21946
 Alpha  occ. eigenvalues --   -0.20719  -0.20177
 Alpha virt. eigenvalues --   -0.10914  -0.04548  -0.01433   0.02244   0.06811
 Alpha virt. eigenvalues --    0.08455   0.08804   0.09702   0.10410   0.11007
 Alpha virt. eigenvalues --    0.12672   0.13327   0.13862   0.14724   0.14803

 Mulliken charges:
               1
     1  N   -0.746803
     2  H    0.319834
     3  H    0.268583
     4  C   -0.092601
     5  H    0.129386
     6  H    0.111483
     7  O   -0.635097
     8  H    0.403661
     9  C    0.069965
    10  C   -0.178654
    11  C   -0.132226
    12  C    0.057762
    13  H    0.155525
    14  C   -0.170271
    15  H    0.162134
    16  C   -0.170314
    17  C    0.072194
    18  H    0.130970
    19  C   -0.133826
    20  H    0.135753
    21  C   -0.170627
    22  C   -0.130485
    23  H    0.129948
    24  H    0.132818
    25  H    0.129118
    26  C    0.344367
    27  C   -0.063087
    28  C   -0.341973
    29  C   -0.331400
    30  C   -0.067666
    31  H    0.198882
    32  H    0.193412
    33  H    0.173387
    34  H    0.186848
    35  H    0.167289
    36  H    0.160043
    37  O   -0.642473
    38  C    0.022029
    39  H    0.152111
 Sum of Mulliken charges =   0.00000

 Dipole moment (field-independent basis, Debye):
    X=              6.2398    Y=             -0.8419    Z=              2.3445  Tot=              6.7187
 Quadrupole moment (field-independent basis, Debye-Ang):
   XX=           -123.5023   YY=           -114.8923   ZZ=           -110.0305
   XY=             -9.0255   XZ=             -8.8938   YZ=              1.9378

  Exact polarizability: 246.951  -7.384 156.405   6.886  14.922 176.822
 Approx polarizability: 416.912 -13.469 243.058  16.282  61.297 366.527

                      1                      2                      3
                      A                      A                      A
 Frequencies --     50.7134                80.8115                82.3701
 Red. masses --      4.4035                 5.5578                 4.5935
 Frc consts  --      0.0067                 0.0214                 0.0184
 IR Inten    --      3.3590                 0.2292                 0.1690

                      4                      5                      6
                      A                      A                      A
 Frequencies --     99.6850               119.5465               129.2206
 Red. masses --      4.3925                 4.9160                 4.7745
 Frc consts  --      0.0257                 0.0414                 0.0470
 IR Inten    --      2.1081                 2.2877                 3.5567

                      7                      8                      9
                      A                      A                      A
 Frequencies --    139.6146               154.6780               196.4672
 Red. masses --      4.9602                 4.8257                 3.1482
 Frc consts  --      0.0570                 0.0680                 0.0716
 IR Inten    --     15.9014                 2.6687                10.4576

                     10                     11                     12
                      A                      A                      A
 Frequencies --    202.8155               210.0620               236.3667
 Red. masses --      4.0826                 3.7350                 1.8849
 Frc consts  --      0.0989                 0.0971                 0.0620
 IR Inten    --      3.7847                 5.0551                 3.2349

                     13                     14                     15
                      A                      A                      A
 Frequencies --    249.6741               288.2224               292.5423
 Red. masses --      2.6750                 4.5437                 4.5425
 Frc consts  --      0.0982                 0.2224                 0.2290
 IR Inten    --      3.4644                12.6731                 6.2335

                     16                     17                     18
                      A                      A                      A
 Frequencies --    325.1741               366.8044               408.6955
 Red. masses --      4.4564                 3.7879                 3.2317
 Frc consts  --      0.2776                 0.3003                 0.3180
 IR Inten    --      1.6756                 1.1056                 1.5899

                     19                     20                     21
                      A                      A                      A
 Frequencies --    416.9452               445.7415               451.2005
 Red. masses --      1.2752                 3.3200                 3.7134
 Frc consts  --      0.1306                 0.3886                 0.4454
 IR Inten    --     75.8345                 4.6225                 2.8998

                     22                     23                     24
                      A                      A                      A
 Frequencies --    494.6514               505.7830               539.4276
 Red. masses --      2.7119                 3.7426                 6.7435
 Frc consts  --      0.3909                 0.5641                 1.1561
 IR Inten    --     10.3280                 1.9640                 0.5085

                     25                     26                     27
                      A                      A                      A
 Frequencies --    543.5220               559.3596               630.6071
 Red. masses --      2.2687                 3.7780                 4.2564
 Frc consts  --      0.3949                 0.6964                 0.9973
 IR Inten    --      1.4542                 1.4475                 6.4017

                     28                     29                     30
                      A                      A                      A
 Frequencies --    649.2533               669.2074               681.7109
 Red. masses --      4.2637                 7.5281                 5.0757
 Frc consts  --      1.0589                 1.9864                 1.3898
 IR Inten    --      1.2510                14.5330                 2.0881

                     31                     32                     33
                      A                      A                      A
 Frequencies --    717.6289               756.2163               784.2856
 Red. masses --      1.4265                 1.7815                 2.4727
 Frc consts  --      0.4328                 0.6002                 0.8961
 IR Inten    --     21.8301                 6.5548                28.5827

                     34                     35                     36
                      A                      A                      A
 Frequencies --    788.3340               796.4553               798.2850
 Red. masses --      3.5345                 4.6693                 1.9149
 Frc consts  --      1.2942                 1.7451                 0.7190
 IR Inten    --      5.9338                 2.4290                56.5130

                     37                     38                     39
                      A                      A                      A
 Frequencies --    816.3505               857.9321               861.9678
 Red. masses --      1.3448                 2.0562                 1.1845
 Frc consts  --      0.5280                 0.8917                 0.5185
 IR Inten    --     27.6336                86.7382                 3.1464

                     40                     41                     42
                      A                      A                      A
 Frequencies --    870.9542               890.6339               915.8777
 Red. masses --      1.5358                 1.4095                 2.1215
 Frc consts  --      0.6864                 0.6587                 1.0485
 IR Inten    --     37.0303                88.0867                85.6929

                     43                     44                     45
                      A                      A                      A
 Frequencies --    918.2283               926.3329               927.3093
 Red. masses --      2.7017                 1.8796                 1.5741
 Frc consts  --      1.3421                 0.9503                 0.7975
 IR Inten    --      4.0687                89.5914                 5.5842

                     46                     47                     48
                      A                      A                      A
 Frequencies --    936.6851               984.6413               988.1895
 Red. masses --      1.6979                 1.9775                 1.9648
 Frc consts  --      0.8777                 1.1296                 1.1305
 IR Inten    --     78.4088                 7.2473                 8.5493

                     49                     50                     51
                      A                      A                      A
 Frequencies --    992.4519              1005.4579              1007.4600
 Red. masses --      2.9168                 2.6209                 1.9385
 Frc consts  --      1.6927                 1.5611                 1.1592
 IR Inten    --      3.9306                26.4314                 4.2183

                     52                     53                     54
                      A                      A                      A
 Frequencies --   1021.6571              1023.7825              1027.0215
 Red. masses --      1.3293                 2.0529                 1.3518
 Frc consts  --      0.8175                 1.2677                 0.8401
 IR Inten    --      1.5806                 0.9105                 5.3410

                     55                     56                     57
                      A                      A                      A
 Frequencies --   1061.6503              1096.9284              1105.1440
 Red. masses --      2.3777                 2.0377                 1.5888
 Frc consts  --      1.5790                 1.4446                 1.1433
 IR Inten    --      0.7115                12.1764                 9.0590

                     58                     59                     60
                      A                      A                      A
 Frequencies --   1132.7177              1156.5886              1172.3154
 Red. masses --      3.0747                 1.1548                 1.7873
 Frc consts  --      2.3243                 0.9102                 1.4472
 IR Inten    --     12.3871                 1.2771                 4.7976

                     61                     62                     63
                      A                      A                      A
 Frequencies --   1204.3225              1205.4232              1209.2112
 Red. masses --      1.2933                 1.1416                 1.2961
 Frc consts  --      1.1052                 0.9774                 1.1166
 IR Inten    --      0.3107                 2.8079                 1.6861

                     64                     65                     66
                      A                      A                      A
 Frequencies --   1221.0146              1235.9316              1269.8456
 Red. masses --      1.1283                 1.5392                 2.5455
 Frc consts  --      0.9911                 1.3853                 2.4184
 IR Inten    --      0.0565                 7.3236                14.0341

                     67                     68                     69
                      A                      A                      A
 Frequencies --   1274.7362              1283.5014              1289.4119
 Red. masses --      2.4754                 1.1205                 1.7876
 Frc consts  --      2.3699                 1.0876                 1.7511
 IR Inten    --      9.1078                 8.9262                 8.5734

                     70                     71                     72
                      A                      A                      A
 Frequencies --   1312.3408              1326.5395              1327.7051
 Red. masses --      1.5586                 1.9917                 1.3182
 Frc consts  --      1.5815                 2.0650                 1.3691
 IR Inten    --      0.1680                13.9461                31.8580

                     73                     74                     75
                      A                      A                      A
 Frequencies --   1355.2044              1359.8457              1375.2327
 Red. masses --      1.8237                 1.9368                 3.3240
 Frc consts  --      1.9734                 2.1102                 3.7040
 IR Inten    --     37.5846                81.6950                18.4133

                     76                     77                     78
                      A                      A                      A
 Frequencies --   1390.7537              1416.1118              1424.3166
 Red. masses --      1.5833                 2.4697                 2.6104
 Frc consts  --      1.8043                 2.9180                 3.1201
 IR Inten    --     14.5994                 5.7591                 3.7171

                     79                     80                     81
                      A                      A                      A
 Frequencies --   1442.1494              1454.4772              1484.8156
 Red. masses --      5.5252                 1.3526                 1.1666
 Frc consts  --      6.7705                 1.6859                 1.5153
 IR Inten    --      7.9316                 7.3327               165.1794

                     82                     83                     84
                      A                      A                      A
 Frequencies --   1491.2157              1496.7297              1504.5294
 Red. masses --      1.1185                 2.0875                 1.0843
 Frc consts  --      1.4654                 2.7553                 1.4461
 IR Inten    --      4.1771                 1.5016                27.3831

                     85                     86                     87
                      A                      A                      A
 Frequencies --   1530.7346              1564.2435              1568.4140
 Red. masses --      2.0926                 1.1321                 2.8518
 Frc consts  --      2.8889                 1.6321                 4.1333
 IR Inten    --      1.9720                 9.9496                12.2732

                     88                     89                     90
                      A                      A                      A
 Frequencies --   1611.3571              1622.2212              1653.9819
 Red. masses --      4.6631                 6.2064                 5.0085
 Frc consts  --      7.1336                 9.6230                 8.0727
 IR Inten    --    230.5173                38.1004                19.4399

                     91                     92                     93
                      A                      A                      A
 Frequencies --   1682.0576              1735.0868              2991.2953
 Red. masses --      6.0397                 1.0893                 1.0621
 Frc consts  --     10.0680                 1.9321                 5.5993
 IR Inten    --     11.3032                42.4712                84.8338

                     94                     95                     96
                      A                      A                      A
 Frequencies --   3016.0021              3022.7022              3024.6145
 Red. masses --      1.0663                 1.0616                 1.0978
 Frc consts  --      5.7144                 5.7147                 5.9174
 IR Inten    --      9.7420                25.2196                48.5483

                     97                     98                     99
                      A                      A                      A
 Frequencies --   3038.1429              3048.4391              3058.9239
 Red. masses --      1.0824                 1.0946                 1.0911
 Frc consts  --      5.8865                 5.9935                 6.0155
 IR Inten    --     79.6982                 2.4341                 3.7708

                    100                    101                    102
                      A                      A                      A
 Frequencies --   3185.9666              3190.1578              3192.0336
 Red. masses --      1.0872                 1.0890                 1.0885
 Frc consts  --      6.5018                 6.5296                 6.5347
 IR Inten    --      1.8480                 9.6606                 5.8497

                    103                    104                    105
                      A                      A                      A
 Frequencies --   3208.1157              3224.5030              3225.6432
 Red. masses --      1.0931                 1.0983                 1.0946
 Frc consts  --      6.6283                 6.7281                 6.7100
 IR Inten    --     23.9876                34.1668                 9.6203

                    106                    107                    108
                      A                      A                      A
 Frequencies --   3230.8022              3240.1397              3242.4080
 Red. masses --      1.0902                 1.0704                 1.0911
 Frc consts  --      6.7044                 6.6212                 6.7587
 IR Inten    --      8.5754               311.5974                27.5941

                    109                    110                    111
                      A                      A                      A
 Frequencies --   3245.3122              3414.8040              3590.0424
 Red. masses --      1.0926                 1.0556                 1.0887
 Frc consts  --      6.7800                 7.2527                 8.2671
 IR Inten    --      3.9364               143.2757                 9.8037

 - Thermochemistry -
 -------------------
 Temperature   298.150 Kelvin.  Pressure   1.00000 Atm.
 Atom     1 has atomic number  7 and mass  14.00307

 Molecular mass:   269.14158 amu.
 Principal axes and moments of inertia in atomic units:
                           1         2         3
     Eigenvalues --  3176.835256021.082586702.00901
           X            0.99964  -0.02528  -0.00928
           Y            0.02558   0.99911   0.03366
           Z            0.00842  -0.03389   0.99939
 This molecule is an asymmetric top.
 Rotational symmetry number  1.
 Warning -- assumption of classical behavior for rotation
           may cause significant error
 Rotational temperatures (Kelvin)      0.02726     0.01439     0.01292
 Rotational constants (GHZ):           0.56809     0.29974     0.26928
 Zero-point vibrational energy     862949.4 (Joules/Mol)
                                  206.24985 (Kcal/Mol)
 Warning -- explicit consideration of  26 degrees of freedom as
           vibrations may cause significant error
 Vibrational temperatures:     72.97   116.27   118.51   143.42   172.00
          (Kelvin)            185.92   200.87   222.55   282.67   291.81
                              302.23   340.08   359.23   414.69   420.90
                              467.85   527.75   588.02   599.89   641.32
                              649.18   711.69   727.71   776.12   782.01
                              804.79   907.30   934.13   962.84   980.83
                             1032.51  1088.03  1128.41  1134.24  1145.92
                             1148.55  1174.55  1234.37  1240.18  1253.11
                             1281.42  1317.74  1321.13  1332.79  1334.19
                             1347.68  1416.68  1421.78  1427.92  1446.63
                             1449.51  1469.94  1472.99  1477.65  1527.48
                             1578.24  1590.06  1629.73  1664.07  1686.70
                             1732.75  1734.34  1739.79  1756.77  1778.23
                             1827.02  1834.06  1846.67  1855.18  1888.17
                             1908.59  1910.27  1949.84  1956.51  1978.65
                             2000.98  2037.47  2049.27  2074.93  2092.67
                             2136.32  2145.53  2153.46  2164.68  2202.39
                             2250.60  2256.60  2318.38  2334.01  2379.71
                             2420.11  2496.40  4303.81  4339.35  4348.99
                             4351.75  4371.21  4386.02  4401.11  4583.90
                             4589.93  4592.62  4615.76  4639.34  4640.98
                             4648.40  4661.84  4665.10  4669.28  4913.14
                             5165.27

 Zero-point correction=                           0.328680 (Hartree/Particle)
 Thermal correction to Energy=                    0.345998
 Thermal correction to Enthalpy=                  0.346942
 Thermal correction to Gibbs Free Energy=         0.284731
 Sum of electronic and zero-point Energies=           -863.912912
 Sum of electronic and thermal Energies=              -863.895594
 Sum of electronic and thermal Enthalpies=            -863.894650
 Sum of electronic and thermal Free Energies=         -863.956861

                     E (Thermal)             CV                S
                      KCal/Mol        Cal/Mol-Kelvin    Cal/Mol-Kelvin
 Total                  217.117             69.714            130.934
 Electronic               0.000              0.000              0.000
 Translational            0.889              2.981             42.669
 Rotational               0.889              2.981             33.216
 Vibrational            215.340             63.753             55.049
 Vibration     1          0.595              1.977              4.789
 Vibration     2          0.600              1.962              3.871
 Vibration     3          0.600              1.961              3.834
 Vibration     4          0.604              1.949              3.460
 Vibration     5          0.609              1.933              3.108
 Vibration     6          0.612              1.924              2.958
 Vibration     7          0.615              1.914              2.809
 Vibration     8          0.620              1.897              2.614
 Vibration     9          0.636              1.845              2.166
 Vibration    10          0.639              1.836              2.107
 Vibration    11          0.642              1.825              2.043
 Vibration    12          0.655              1.785              1.830
 Vibration    13          0.662              1.763              1.733
 Vibration    14          0.685              1.696              1.484
 Vibration    15          0.688              1.688              1.459
 Vibration    16          0.709              1.625              1.284
 Vibration    17          0.740              1.541              1.093
 Vibration    18          0.773              1.451              0.931
 Vibration    19          0.780              1.433              0.902
 Vibration    20          0.805              1.370              0.809
 Vibration    21          0.810              1.358              0.792
 Vibration    22          0.850              1.262              0.672
 Vibration    23          0.861              1.237              0.644
 Vibration    24          0.894              1.163              0.567
 Vibration    25          0.899              1.154              0.558
 Vibration    26          0.915              1.119              0.525

                           ! Non-Optimized Parameters !

 1\1\GINC-HOLY7C01311\Freq\RB3LYP\6-31G\C17H19N1O2\ROOT\05-Dec-2017\0\\
 #P Geom=AllCheck Guess=TCheck SCRF=Check GenChk RB3LYP/6-31G Freq\\Com
 plex\\0,1\N,2.1032415907,-1.1354064708,1.3277706263\H,2.0852200593,-0.
 1882720535,1.7138917199\H,2.5211970603,-1.802828464,1.9678485729\C,2.6
 82851066,-1.1809869298,-0.0216839962\H,3.782607251,-1.2437720308,-0.01
 97114044\H,2.3131204031,-2.0696525039,-0.5539768724\O,3.0252716565,1.2
 405400051,-0.311518048\H,2.5020713645,1.5664692879,0.4764727171\C,0.86
 14967282,0.359680101,-1.0305799086\C,-0.1322597888,-0.5897688349,-0.84

 Normal termination of Gaussian 16 at Tue Dec  5 18:29:11 2017.
