 Gaussian 16, Revision A.03,
 Gaussian 16:  ES64L-G16RevA.03 25-Dec-2016

 ------------------------
 #p pddg opt freq=noraman
 ------------------------

 -------
 Complex
 -------
 Symbolic Z-matrix:
 Charge =  0 Multiplicity = 1

 SCF Done:  E(RPDDG) =  0.971463552308     A.U. after   22 cycles
 SCF Done:  E(RPDDG) =  0.642614044595     A.U. after   18 cycles
 SCF Done:  E(RPDDG) =  0.401320164686     A.U. after   18 cycles
 SCF Done:  E(RPDDG) =  0.372006044275     A.U. after   17 cycles
 SCF Done:  E(RPDDG) =  0.239063036556     A.U. after   16 cycles
 SCF Done:  E(RPDDG) =  0.153518622031     A.U. after   16 cycles
 SCF Done:  E(RPDDG) =  0.110099874550     A.U. after   15 cycles
 SCF Done:  E(RPDDG) =  0.958145639313E-01 A.U. after   16 cycles
 SCF Done:  E(RPDDG) =  0.716660916898E-01 A.U. after   15 cycles
 SCF Done:  E(RPDDG) =  0.534645289297E-01 A.U. after   15 cycles
 SCF Done:  E(RPDDG) = -0.517385240366E-01 A.U. after   13 cycles
 SCF Done:  E(RPDDG) = -0.517597884348E-01 A.U. after   11 cycles
 SCF Done:  E(RPDDG) = -0.517533656946E-01 A.U. after   12 cycles
 SCF Done:  E(RPDDG) = -0.517612031670E-01 A.U. after   12 cycles
 SCF Done:  E(RPDDG) = -0.517596175537E-01 A.U. after   12 cycles
 SCF Done:  E(RPDDG) = -0.517627296610E-01 A.U. after   11 cycles
 SCF Done:  E(RPDDG) = -0.517629686631E-01 A.U. after   10 cycles
 SCF Done:  E(RPDDG) = -0.517627144472E-01 A.U. after   11 cycles
 SCF Done:  E(RPDDG) = -0.517631093467E-01 A.U. after   11 cycles
 Optimization completed.
    -- Stationary point found.
 Normal termination of Gaussian 16 at Thu Dec  7 02:35:15 2017.

 --------------------------------------------------------------
 #P Geom=AllCheck Guess=TCheck SCRF=Check GenChk RPDDG/ZDO Freq
 --------------------------------------------------------------

 Structure from the checkpoint file:  "/scratch/dhuang9_oac_cat4_nocp_complex_pddg/Gau-108236.chk"
 -------
 Complex
 -------
 Charge =  0 Multiplicity = 1

                         Standard orientation:
 ---------------------------------------------------------------------
 Center     Atomic      Atomic             Coordinates (Angstroms)
 Number     Number       Type             X           Y           Z
 ---------------------------------------------------------------------
      1          6           0        1.223560   -1.216162    1.057452
      2          6           0        1.277290   -2.218185    1.949546
      3          6           0        0.655279   -3.432105    1.313340
      4          6           0       -0.151127   -2.864075    0.116457
      5          6           0        0.632142   -1.598671   -0.271774
      6          1           0        1.653275   -2.204076    2.975070
      7          1           0        1.424951   -4.158409    0.981756
      8          1           0        0.011521   -3.977106    2.030637
      9          1           0       -0.239342   -3.575730   -0.726630
     10          1           0       -1.187658   -2.655054    0.451021
     11          1           0        1.448241   -1.914923   -0.984648
     12          8           0        1.463071    0.115285    1.197683
     13          7           0        4.120768   -0.051154   -0.321022
     14          1           0        3.691878   -0.733599    0.254651
     15          1           0        4.516945    0.659562    0.243845
     16          6           0        3.169466    0.514014   -1.282066
     17          1           0        3.776898    1.089330   -2.017294
     18          1           0        2.712479   -0.319026   -1.870853
     19          8           0        2.641835    2.539403   -0.095036
     20          1           0        2.916290    2.238158    0.767082
     21          6           0        0.869718    0.790498    0.056909
     22          6           0        0.008437   -0.265623   -0.762927
     23          6           0        0.061485    1.891078    0.680475
     24          6           0       -1.480809   -0.187958   -0.530054
     25          6           0       -1.276625    1.917644    0.741636
     26          1           0        0.615824    2.705946    1.182669
     27          6           0       -2.294169   -1.166946   -1.121628
     28          6           0       -2.092385    0.852765    0.175147
     29          6           0       -3.673655   -1.135779   -0.983940
     30          1           0       -1.846173   -1.997768   -1.696102
     31          6           0       -3.487453    0.872357    0.322066
     32          6           0       -4.272977   -0.115900   -0.250670
     33          1           0       -4.290568   -1.916326   -1.452110
     34          1           0       -3.998661    1.666335    0.890369
     35          1           0       -5.365608   -0.091712   -0.129469
     36          6           0        0.182562   -0.100607   -2.278169
     37          1           0        1.223094   -0.248417   -2.613635
     38          1           0       -0.399086   -0.824233   -2.865328
     39          1           0       -0.129615    0.896249   -2.616804
     40          6           0       -1.960916    3.064720    1.405396
     41          1           0       -2.675830    3.550278    0.727491
     42          1           0       -2.523358    2.731712    2.288151
     43          1           0       -1.273660    3.850077    1.749819
     44          6           0        2.051166    1.458819   -0.754814
     45          1           0        1.607599    1.989996   -1.638000
 ---------------------------------------------------------------------

 SCF Done:  E(RPDDG) = -0.517631093571E-01 A.U. after    2 cycles

 The electronic state is 1-A.
 Alpha  occ. eigenvalues --   -1.65165  -1.48361  -1.46299  -1.35332  -1.31301
 Alpha  occ. eigenvalues --   -1.29436  -1.20832  -1.09200  -1.07700  -1.06907
 Alpha  occ. eigenvalues --   -1.03002  -0.99832  -0.95169  -0.89072  -0.83724
 Alpha  occ. eigenvalues --   -0.82292  -0.79009  -0.75751  -0.74616  -0.72176
 Alpha  occ. eigenvalues --   -0.68277  -0.67849  -0.64919  -0.64237  -0.62773
 Alpha  occ. eigenvalues --   -0.61951  -0.60293  -0.59401  -0.58183  -0.57352
 Alpha  occ. eigenvalues --   -0.56174  -0.55272  -0.54818  -0.53847  -0.53600
 Alpha  occ. eigenvalues --   -0.52847  -0.51679  -0.51237  -0.51046  -0.50195
 Alpha  occ. eigenvalues --   -0.48876  -0.48469  -0.48225  -0.47842  -0.47426
 Alpha  occ. eigenvalues --   -0.47180  -0.45771  -0.45684  -0.45137  -0.43918
 Alpha  occ. eigenvalues --   -0.43111  -0.42416  -0.41323  -0.39744  -0.35856
 Alpha  occ. eigenvalues --   -0.34470  -0.33424  -0.32915
 Alpha virt. eigenvalues --   -0.01173   0.00694   0.03785   0.04888   0.06804
 Alpha virt. eigenvalues --    0.08340   0.08729   0.09401   0.09703   0.10121
 Alpha virt. eigenvalues --    0.10486   0.10811   0.11003   0.11142   0.11544

 Mulliken charges:
               1
     1  C   -0.015646
     2  C   -0.261188
     3  C   -0.133033
     4  C   -0.191946
     5  C   -0.113141
     6  H    0.176481
     7  H    0.097075
     8  H    0.101542
     9  H    0.097624
    10  H    0.119517
    11  H    0.131086
    12  O   -0.152391
    13  N   -0.099643
    14  H    0.071273
    15  H    0.062515
    16  C   -0.247673
    17  H    0.114994
    18  H    0.116029
    19  O   -0.305452
    20  H    0.202018
    21  C    0.107326
    22  C    0.057445
    23  C   -0.232881
    24  C   -0.049298
    25  C   -0.018928
    26  H    0.171383
    27  C   -0.161595
    28  C   -0.023817
    29  C   -0.147814
    30  H    0.159724
    31  C   -0.140747
    32  C   -0.154091
    33  H    0.151721
    34  H    0.158194
    35  H    0.152349
    36  C   -0.304883
    37  H    0.108173
    38  H    0.104867
    39  H    0.109028
    40  C   -0.235350
    41  H    0.101828
    42  H    0.102508
    43  H    0.100832
    44  C   -0.013583
    45  H    0.127566
 Sum of Mulliken charges =   0.00000

 Dipole moment (field-independent basis, Debye):
    X=             -2.7245    Y=             -0.7563    Z=             -0.4939  Tot=              2.8704
 N-N= 1.044869540094D+03 E-N=-1.817031741239D+03  KE=-1.911525753276D+02
  Exact polarizability: 195.761   4.169 166.147   7.461   9.244 121.064
 Approx polarizability: 145.300   7.471 130.622   4.158  15.082  94.929
 Leave Link  601 at Thu Dec  7 02:35:17 2017, MaxMem=   402653184 cpu:               0.2 elap:               0.0
 (Enter /n/sw/g16_nehalem/g16/l701.exe)
 ... and contract with generalized density number  0.
 Compute integral second derivatives.
 Leave Link  701 at Thu Dec  7 02:35:17 2017, MaxMem=   402653184 cpu:               0.4 elap:               0.1
 (Enter /n/sw/g16_nehalem/g16/l702.exe)
 L702 exits ... SP integral derivatives will be done elsewhere.

                      1                      2                      3
                      A                      A                      A
 Frequencies --     31.5764                67.2360                75.7781
 Red. masses --      3.6783                 3.9316                 2.9545
 Frc consts  --      0.0022                 0.0105                 0.0100
 IR Inten    --      0.2571                 0.4085                 0.8023

                      4                      5                      6
                      A                      A                      A
 Frequencies --    112.5538               126.1574               148.4986
 Red. masses --      4.1799                 3.0549                 2.9555
 Frc consts  --      0.0312                 0.0286                 0.0384
 IR Inten    --      0.6015                 0.9746                 1.0053

                      7                      8                      9
                      A                      A                      A
 Frequencies --    153.3850               221.5959               226.3913
 Red. masses --      3.1750                 3.7714                 2.9809
 Frc consts  --      0.0440                 0.1091                 0.0900
 IR Inten    --      1.4215                 1.1451                 2.0226

                     10                     11                     12
                      A                      A                      A
 Frequencies --    266.1960               291.0129               292.8279
 Red. masses --      2.8838                 4.1537                 2.8927
 Frc consts  --      0.1204                 0.2073                 0.1461
 IR Inten    --      1.1615                 2.0317                 0.4656

                     13                     14                     15
                      A                      A                      A
 Frequencies --    312.0072               328.3781               341.6956
 Red. masses --      2.2309                 1.4585                 5.0978
 Frc consts  --      0.1280                 0.0927                 0.3507
 IR Inten    --      2.6161                 2.2315                21.4619

                     16                     17                     18
                      A                      A                      A
 Frequencies --    349.5055               358.9382               381.5925
 Red. masses --      4.3595                 1.6053                 2.6744
 Frc consts  --      0.3138                 0.1219                 0.2294
 IR Inten    --      3.4547                 2.4698                13.3285

                     19                     20                     21
                      A                      A                      A
 Frequencies --    385.7453               393.5487               423.1134
 Red. masses --      2.9875                 2.8654                 3.5766
 Frc consts  --      0.2619                 0.2615                 0.3773
 IR Inten    --      1.9850                17.0402                 1.7947

                     22                     23                     24
                      A                      A                      A
 Frequencies --    434.8342               440.7551               469.2559
 Red. masses --      2.4155                 2.0434                 2.5714
 Frc consts  --      0.2691                 0.2339                 0.3336
 IR Inten    --     13.3354                15.1432                 1.0809

                     25                     26                     27
                      A                      A                      A
 Frequencies --    497.0283               524.1959               530.9205
 Red. masses --      4.3518                 3.2751                 3.8606
 Frc consts  --      0.6334                 0.5302                 0.6411
 IR Inten    --      0.2137                 3.1162                 2.6418

                     28                     29                     30
                      A                      A                      A
 Frequencies --    577.8535               589.9512               606.2420
 Red. masses --      4.0678                 2.9808                 3.7807
 Frc consts  --      0.8003                 0.6112                 0.8187
 IR Inten    --      3.2395                 1.8503                 3.0930

                     31                     32                     33
                      A                      A                      A
 Frequencies --    637.9888               662.5339               667.8019
 Red. masses --      4.2317                 3.7427                 1.1622
 Frc consts  --      1.0148                 0.9679                 0.3054
 IR Inten    --      2.9403                 4.6655                98.2235

                     34                     35                     36
                      A                      A                      A
 Frequencies --    680.5354               687.3934               737.3494
 Red. masses --      3.6530                 3.0989                 4.7028
 Frc consts  --      0.9968                 0.8627                 1.5065
 IR Inten    --     14.8452                 4.7323                 2.2085

                     37                     38                     39
                      A                      A                      A
 Frequencies --    772.0759               782.5286               791.4870
 Red. masses --      4.0283                 2.8205                 1.6858
 Frc consts  --      1.4148                 1.0176                 0.6222
 IR Inten    --      0.1341                 8.3659                36.6934

                     40                     41                     42
                      A                      A                      A
 Frequencies --    809.3460               814.7257               864.2928
 Red. masses --      1.7009                 1.8074                 2.6371
 Frc consts  --      0.6565                 0.7068                 1.1607
 IR Inten    --     50.3967                39.5513                 4.5166

                     43                     44                     45
                      A                      A                      A
 Frequencies --    876.7408               899.8705               909.5266
 Red. masses --      2.5967                 1.6020                 1.5644
 Frc consts  --      1.1760                 0.7643                 0.7625
 IR Inten    --      2.4498                15.3570                26.0589

                     46                     47                     48
                      A                      A                      A
 Frequencies --    912.6994               920.9574               949.5609
 Red. masses --      1.4337                 2.0743                 1.9882
 Frc consts  --      0.7036                 1.0366                 1.0562
 IR Inten    --      9.2100                 1.1704                 3.8930

                     49                     50                     51
                      A                      A                      A
 Frequencies --    959.1054               977.4561               985.9076
 Red. masses --      1.9539                 1.6750                 1.3993
 Frc consts  --      1.0590                 0.9429                 0.8014
 IR Inten    --      2.8661                 5.9287                 1.8575

                     52                     53                     54
                      A                      A                      A
 Frequencies --    988.4130              1006.5337              1022.5193
 Red. masses --      1.4392                 1.6012                 1.5157
 Frc consts  --      0.8284                 0.9558                 0.9337
 IR Inten    --      9.7741                 9.0087                28.3031

                     55                     56                     57
                      A                      A                      A
 Frequencies --   1026.0169              1037.0725              1041.7254
 Red. masses --      1.4207                 1.2946                 1.2854
 Frc consts  --      0.8812                 0.8204                 0.8219
 IR Inten    --     18.7955                 3.3904                 9.5035

                     58                     59                     60
                      A                      A                      A
 Frequencies --   1062.4264              1066.3094              1079.2663
 Red. masses --      1.4352                 1.4397                 1.4021
 Frc consts  --      0.9545                 0.9645                 0.9623
 IR Inten    --      4.2551                 1.2708                17.6965

                     61                     62                     63
                      A                      A                      A
 Frequencies --   1099.2737              1104.0824              1109.2695
 Red. masses --      1.1443                 1.6570                 1.3487
 Frc consts  --      0.8147                 1.1901                 0.9778
 IR Inten    --      0.1971                 8.4443                 2.2305

                     64                     65                     66
                      A                      A                      A
 Frequencies --   1121.7138              1136.9120              1149.3482
 Red. masses --      1.7852                 1.7921                 1.4145
 Frc consts  --      1.3234                 1.3648                 1.1009
 IR Inten    --      4.0206                16.4990                36.1125

                     67                     68                     69
                      A                      A                      A
 Frequencies --   1165.9995              1169.5441              1174.0862
 Red. masses --      1.8100                 1.3094                 1.6979
 Frc consts  --      1.4499                 1.0553                 1.3790
 IR Inten    --      8.6764                21.1325                 3.7870

                     70                     71                     72
                      A                      A                      A
 Frequencies --   1187.9616              1198.2658              1213.3002
 Red. masses --      1.9206                 2.2428                 1.6808
 Frc consts  --      1.5969                 1.8974                 1.4578
 IR Inten    --     12.2575                27.6866                 6.4194

                     73                     74                     75
                      A                      A                      A
 Frequencies --   1227.8135              1236.7165              1245.2501
 Red. masses --      1.6704                 1.6961                 1.9193
 Frc consts  --      1.4836                 1.5284                 1.7535
 IR Inten    --      3.2555                11.7719                12.5542

                     76                     77                     78
                      A                      A                      A
 Frequencies --   1262.1587              1268.4363              1279.4667
 Red. masses --      1.6616                 1.2051                 1.5666
 Frc consts  --      1.5596                 1.1424                 1.5110
 IR Inten    --     23.2507                 4.4003                 1.3942

                     79                     80                     81
                      A                      A                      A
 Frequencies --   1300.2269              1301.9732              1314.6970
 Red. masses --      1.7205                 1.3315                 1.7537
 Frc consts  --      1.7137                 1.3299                 1.7859
 IR Inten    --      8.3981                 0.7983                 4.0469

                     82                     83                     84
                      A                      A                      A
 Frequencies --   1323.5935              1331.2847              1335.5953
 Red. masses --      1.3652                 1.3114                 1.4491
 Frc consts  --      1.4092                 1.3694                 1.5230
 IR Inten    --     11.8344                10.0157                17.7341

                     85                     86                     87
                      A                      A                      A
 Frequencies --   1338.7035              1347.9829              1354.8162
 Red. masses --      3.8148                 1.3292                 1.7436
 Frc consts  --      4.0281                 1.4230                 1.8857
 IR Inten    --     11.5060                 9.9999                 2.3145

                     88                     89                     90
                      A                      A                      A
 Frequencies --   1363.7162              1374.6687              1385.7451
 Red. masses --      1.9197                 2.1343                 2.0150
 Frc consts  --      2.1034                 2.3763                 2.2798
 IR Inten    --      4.2878                 2.3998                 4.7889

                     91                     92                     93
                      A                      A                      A
 Frequencies --   1388.7799              1405.8261              1420.9090
 Red. masses --      1.7533                 1.7354                 1.4361
 Frc consts  --      1.9924                 2.0207                 1.7083
 IR Inten    --      1.7879                 2.7272                 3.0414

                     94                     95                     96
                      A                      A                      A
 Frequencies --   1432.5607              1444.0082              1477.4308
 Red. masses --      1.8985                 1.8046                 2.5293
 Frc consts  --      2.2955                 2.2171                 3.2529
 IR Inten    --     59.9251                28.1022                17.6014

                     97                     98                     99
                      A                      A                      A
 Frequencies --   1512.8674              1520.2355              1540.7551
 Red. masses --      9.6238                 1.4537                 1.1347
 Frc consts  --     12.9777                 1.9795                 1.5870
 IR Inten    --     72.2708                 3.5665                 8.0667

                    100                    101                    102
                      A                      A                      A
 Frequencies --   1580.4177              1643.1665              1674.0866
 Red. masses --      5.3098                 1.1505                 6.3519
 Frc consts  --      7.8140                 1.8302                10.4883
 IR Inten    --      0.9761                 5.8564                 8.0779

                    103                    104                    105
                      A                      A                      A
 Frequencies --   1810.2129              1815.7560              1912.0470
 Red. masses --     10.1974                 9.4841                 9.7517
 Frc consts  --     19.6879                18.4230                21.0052
 IR Inten    --      1.2554                 0.2330                40.8827

                    106                    107                    108
                      A                      A                      A
 Frequencies --   1922.8952              2750.0139              2768.3118
 Red. masses --      9.8826                 1.0846                 1.0901
 Frc consts  --     21.5294                 4.8327                 4.9220
 IR Inten    --     54.0306                 8.7861                10.1983

                    109                    110                    111
                      A                      A                      A
 Frequencies --   2837.7681              2851.7219              2909.3466
 Red. masses --      1.0907                 1.0743                 1.0937
 Frc consts  --      5.1748                 5.1474                 5.4545
 IR Inten    --      8.7689                11.1378                 0.2019

                    112                    113                    114
                      A                      A                      A
 Frequencies --   2918.0624              2919.8317              2928.5579
 Red. masses --      1.0960                 1.0772                 1.0956
 Frc consts  --      5.4988                 5.4108                 5.5362
 IR Inten    --     60.8149                 7.5990                35.2250

                    115                    116                    117
                      A                      A                      A
 Frequencies --   2933.3712              2948.4242              2952.0154
 Red. masses --      1.0782                 1.0808                 1.0955
 Frc consts  --      5.4662                 5.5355                 5.6249
 IR Inten    --     10.2776                 1.8997                28.8719

                    118                    119                    120
                      A                      A                      A
 Frequencies --   2970.8417              2984.3745              3000.8289
 Red. masses --      1.0963                 1.1063                 1.0918
 Frc consts  --      5.7007                 5.8054                 5.7926
 IR Inten    --     43.5730                83.2957                 4.8049

                    121                    122                    123
                      A                      A                      A
 Frequencies --   3001.7185              3003.4574              3017.7358
 Red. masses --      1.0913                 1.1005                 1.0465
 Frc consts  --      5.7932                 5.8493                 5.6149
 IR Inten    --     12.3422                 7.1495                 6.9747

                    124                    125                    126
                      A                      A                      A
 Frequencies --   3022.2285              3054.8196              3068.4589
 Red. masses --      1.0893                 1.0471                 1.0999
 Frc consts  --      5.8622                 5.7571                 6.1014
 IR Inten    --      9.7903                 6.5743                79.2963

                    127                    128                    129
                      A                      A                      A
 Frequencies --   3360.6520              3494.2967              3760.5874
 Red. masses --      1.0994                 1.0414                 1.0665
 Frc consts  --      7.3156                 7.4916                 8.8867
 IR Inten    --      0.8267                11.6913                10.6638

 - Thermochemistry -
 -------------------
 Temperature   298.150 Kelvin.  Pressure   1.00000 Atm.
 Atom     1 has atomic number  6 and mass  12.00000

 Molecular mass:   297.17288 amu.
 Principal axes and moments of inertia in atomic units:
                           1         2         3
     Eigenvalues --  4284.993256575.111858473.14775
           X            0.99986  -0.01380  -0.00938
           Y            0.01395   0.99977   0.01611
           Z            0.00916  -0.01624   0.99983
 This molecule is an asymmetric top.
 Rotational symmetry number  1.
 Warning -- assumption of classical behavior for rotation
           may cause significant error
 Rotational temperatures (Kelvin)      0.02021     0.01317     0.01022
 Rotational constants (GHZ):           0.42118     0.27448     0.21300
 Zero-point vibrational energy    1010670.5 (Joules/Mol)
                                  241.55605 (Kcal/Mol)
 Warning -- explicit consideration of  30 degrees of freedom as
           vibrations may cause significant error
 Vibrational temperatures:     45.43    96.74   109.03   161.94   181.51
          (Kelvin)            213.66   220.69   318.83   325.73   383.00
                              418.70   421.31   448.91   472.46   491.62
                              502.86   516.43   549.03   555.00   566.23
                              608.77   625.63   634.15   675.15   715.11
                              754.20   763.88   831.40   848.81   872.25
                              917.92   953.24   960.82   979.14   989.01
                             1060.88  1110.85  1125.88  1138.77  1164.47
                             1172.21  1243.52  1261.43  1294.71  1308.61
                             1313.17  1325.05  1366.21  1379.94  1406.34
                             1418.50  1422.11  1448.18  1471.18  1476.21
                             1492.12  1498.81  1528.59  1534.18  1552.82
                             1581.61  1588.53  1595.99  1613.90  1635.76
                             1653.66  1677.61  1682.71  1689.25  1709.21
                             1724.04  1745.67  1766.55  1779.36  1791.64
                             1815.96  1825.00  1840.87  1870.74  1873.25
                             1891.56  1904.36  1915.42  1921.62  1926.10
                             1939.45  1949.28  1962.08  1977.84  1993.78
                             1998.14  2022.67  2044.37  2061.14  2077.61
                             2125.69  2176.68  2187.28  2216.80  2273.87
                             2364.15  2408.64  2604.49  2612.47  2751.01
                             2766.62  3956.66  3982.98  4082.92  4102.99
                             4185.90  4198.44  4200.99  4213.54  4220.47
                             4242.12  4247.29  4274.38  4293.85  4317.52
                             4318.80  4321.31  4341.85  4348.31  4395.20
                             4414.83  4835.23  5027.51  5410.65

 Zero-point correction=                           0.384944 (Hartree/Particle)
 Thermal correction to Energy=                    0.402767
 Thermal correction to Enthalpy=                  0.403712
 Thermal correction to Gibbs Free Energy=         0.340653
 Sum of electronic and zero-point Energies=              0.333181
 Sum of electronic and thermal Energies=                 0.351004
 Sum of electronic and thermal Enthalpies=               0.351949
 Sum of electronic and thermal Free Energies=            0.288890

                     E (Thermal)             CV                S
                      KCal/Mol        Cal/Mol-Kelvin    Cal/Mol-Kelvin
 Total                  252.740             75.816            132.718
 Electronic               0.000              0.000              0.000
 Translational            0.889              2.981             42.965
 Rotational               0.889              2.981             33.834
 Vibrational            250.963             69.854             55.920
 Vibration     1          0.594              1.983              5.728
 Vibration     2          0.598              1.970              4.233
 Vibration     3          0.599              1.965              3.997
 Vibration     4          0.607              1.939              3.224
 Vibration     5          0.611              1.927              3.004
 Vibration     6          0.618              1.904              2.691
 Vibration     7          0.619              1.899              2.630
 Vibration     8          0.648              1.808              1.946
 Vibration     9          0.650              1.801              1.907
 Vibration    10          0.672              1.735              1.621
 Vibration    11          0.687              1.690              1.468
 Vibration    12          0.688              1.687              1.458
 Vibration    13          0.700              1.651              1.352
 Vibration    14          0.712              1.619              1.268
 Vibration    15          0.721              1.592              1.204
 Vibration    16          0.727              1.576              1.168
 Vibration    17          0.734              1.557              1.127
 Vibration    18          0.751              1.509              1.033
 Vibration    19          0.754              1.501              1.017
 Vibration    20          0.761              1.484              0.987
 Vibration    21          0.785              1.420              0.881
 Vibration    22          0.795              1.394              0.843
 Vibration    23          0.801              1.381              0.824
 Vibration    24          0.826              1.318              0.740
 Vibration    25          0.853              1.257              0.666
 Vibration    26          0.879              1.196              0.600
 Vibration    27          0.886              1.182              0.585
 Vibration    28          0.934              1.079              0.489
 Vibration    29          0.947              1.053              0.467
 Vibration    30          0.965              1.019              0.439

 Optimization completed.
    -- Stationary point found.
 Normal termination of Gaussian 16 at Thu Dec  7 02:35:18 2017.
