 Gaussian 16, Revision A.03,
 Gaussian 16:  ES64L-G16RevA.03 25-Dec-2016

 ----------------------------------------------------------------------
 #p b3lyp empiricaldispersion=gd3bj 6-31g scrf=(pcm,solvent=perfluorobe
 nzene) opt freq=noraman
 ----------------------------------------------------------------------

 -------
 Complex
 -------
 Symbolic Z-matrix:
 Charge =  0 Multiplicity = 1

 SCF Done:  E(RB3LYP) =  -941.799731955     A.U. after   16 cycles
 SCF Done:  E(RB3LYP) =  -942.153340470     A.U. after   15 cycles
 SCF Done:  E(RB3LYP) =  -942.408450799     A.U. after   15 cycles
 SCF Done:  E(RB3LYP) =  -942.451375662     A.U. after   15 cycles
 SCF Done:  E(RB3LYP) =  -942.608444177     A.U. after   14 cycles
 SCF Done:  E(RB3LYP) =  -942.618223855     A.U. after   15 cycles
 SCF Done:  E(RB3LYP) =  -942.738288260     A.U. after   13 cycles
 SCF Done:  E(RB3LYP) =  -942.758155424     A.U. after   14 cycles
 SCF Done:  E(RB3LYP) =  -942.788113397     A.U. after   15 cycles
 SCF Done:  E(RB3LYP) =  -942.805108781     A.U. after   13 cycles
 SCF Done:  E(RB3LYP) =  -942.861940229     A.U. after   10 cycles
 SCF Done:  E(RB3LYP) =  -942.861949686     A.U. after   10 cycles
 SCF Done:  E(RB3LYP) =  -942.861954336     A.U. after    9 cycles
 SCF Done:  E(RB3LYP) =  -942.861958482     A.U. after    9 cycles
 SCF Done:  E(RB3LYP) =  -942.861961098     A.U. after    9 cycles
 SCF Done:  E(RB3LYP) =  -942.861962078     A.U. after    8 cycles
 SCF Done:  E(RB3LYP) =  -942.861962772     A.U. after    8 cycles
 SCF Done:  E(RB3LYP) =  -942.861963146     A.U. after    8 cycles
 SCF Done:  E(RB3LYP) =  -942.861963253     A.U. after    7 cycles
 Optimization completed.
    -- Stationary point found.

 1\1\GINC-HOLY7C07303\FOpt\RB3LYP\6-31G\C19H23N1O2\ROOT\07-Dec-2017\0\\
 #p b3lyp empiricaldispersion=gd3bj 6-31g scrf=(pcm,solvent=perfluorobe
 nzene) opt freq=noraman\\Complex\\0,1\C,-0.8275000976,0.7338928399,-1.
 2595733987\C,-1.4819817375,0.6155176634,-2.5254070634\C,-2.6434878722,
 -0.3031800341,-2.5069183238\C,-2.6022696273,-0.9244159853,-1.087863430
 9\C,-1.4698032966,-0.2321154898,-0.4279301379\H,-1.1956268614,1.204665
 0953,-3.3884122862\H,-3.5852639678,0.2388067053,-2.6873603851\H,-2.584
 5339757,-1.0688865079,-3.2927260398\H,-3.546508729,-0.7895810224,-0.53

 Normal termination of Gaussian 16 at Thu Dec  7 04:27:10 2017.

 -----------------------------------------------------------------
 #P Geom=AllCheck Guess=TCheck SCRF=Check GenChk RB3LYP/6-31G Freq
 -----------------------------------------------------------------

 Structure from the checkpoint file:  "/scratch/dhuang9_oac_cat4_nocp_b3lyp_d3bj_631g_pfb/Gau-108235.chk"
 -------
 Complex
 -------
 Charge =  0 Multiplicity = 1

                         Standard orientation:
 ---------------------------------------------------------------------
 Center     Atomic      Atomic             Coordinates (Angstroms)
 Number     Number       Type             X           Y           Z
 ---------------------------------------------------------------------
      1          6           0        0.978634    1.646366    1.048908
      2          6           0       -0.204966    2.383375    0.731730
      3          6           0       -1.356602    2.056395    1.603661
      4          6           0       -0.845239    0.874459    2.465569
      5          6           0        0.566777    0.710867    2.045187
      6          1           0       -0.224919    3.159363   -0.024124
      7          1           0       -1.645643    2.918772    2.224960
      8          1           0       -2.254072    1.788199    1.029298
      9          1           0       -0.936513    1.067530    3.544805
     10          1           0       -1.432922   -0.036867    2.273973
     11          1           0        1.238339   -0.015683    2.486896
     12          8           0        2.151773    1.781606    0.511476
     13          7           0        4.110056   -0.349638    0.912282
     14          1           0        3.682219    0.564220    1.071252
     15          1           0        4.920239   -0.259016    0.306008
     16          6           0        3.126666   -1.288922    0.388610
     17          1           0        3.595721   -2.275588    0.306023
     18          1           0        2.330069   -1.375406    1.129288
     19          8           0        3.126687    0.272129   -1.552555
     20          1           0        2.903347    1.006355   -0.913498
     21          6           0        0.965396   -0.726750   -0.989379
     22          6           0        0.096569   -1.585414   -0.313113
     23          6           0        0.434441    0.390883   -1.681026
     24          6           0       -1.300499   -1.243146   -0.223879
     25          6           0       -0.904356    0.735893   -1.653226
     26          1           0        1.131906    1.001450   -2.237852
     27          6           0       -2.207137   -2.017285    0.553356
     28          6           0       -1.809221   -0.081190   -0.897275
     29          6           0       -3.543830   -1.671731    0.664461
     30          1           0       -1.843399   -2.890634    1.080197
     31          6           0       -3.189718    0.233217   -0.784378
     32          6           0       -4.043441   -0.540548   -0.016555
     33          1           0       -4.210192   -2.275387    1.271411
     34          1           0       -3.578494    1.097446   -1.310202
     35          1           0       -5.093775   -0.280988    0.060975
     36          6           0        0.545254   -2.922664    0.241332
     37          1           0        1.536464   -3.197656   -0.117601
     38          1           0        0.574244   -2.941604    1.337811
     39          1           0       -0.143971   -3.712354   -0.077297
     40          6           0       -1.406713    1.913605   -2.454624
     41          1           0       -2.093303    1.593511   -3.248675
     42          1           0       -1.951391    2.635966   -1.834397
     43          1           0       -0.571887    2.439041   -2.925317
     44          6           0        2.486928   -0.915182   -1.021503
     45          1           0        2.736201   -1.706434   -1.738402
 ---------------------------------------------------------------------

 SCF Done:  E(RB3LYP) =  -942.861963253     A.U. after    1 cycles

 The electronic state is 1-A.
 Alpha  occ. eigenvalues --  -19.10615 -19.08151 -14.27525 -10.24973 -10.23460
 Alpha  occ. eigenvalues --  -10.22988 -10.22124 -10.20926 -10.20855 -10.20628
 Alpha  occ. eigenvalues --  -10.20421 -10.20401 -10.20217 -10.19859 -10.19824
 Alpha  occ. eigenvalues --  -10.19762 -10.19741 -10.19383 -10.18936 -10.18285
 Alpha  occ. eigenvalues --  -10.18174 -10.18028  -0.99425  -0.97779  -0.88779
 Alpha  occ. eigenvalues --   -0.86918  -0.85325  -0.83563  -0.80889  -0.75835
 Alpha  occ. eigenvalues --   -0.74728  -0.73676  -0.72877  -0.71533  -0.69738
 Alpha  occ. eigenvalues --   -0.66345  -0.63212  -0.62130  -0.59972  -0.58952
 Alpha  occ. eigenvalues --   -0.57102  -0.55066  -0.51914  -0.51501  -0.49888
 Alpha  occ. eigenvalues --   -0.49056  -0.48806  -0.47579  -0.46737  -0.44967
 Alpha  occ. eigenvalues --   -0.44505  -0.43434  -0.43105  -0.42799  -0.42491
 Alpha  occ. eigenvalues --   -0.42041  -0.41441  -0.40079  -0.39812  -0.39443
 Alpha  occ. eigenvalues --   -0.38998  -0.38861  -0.38529  -0.38057  -0.37681
 Alpha  occ. eigenvalues --   -0.37374  -0.37050  -0.36756  -0.34577  -0.34101
 Alpha  occ. eigenvalues --   -0.33108  -0.31625  -0.29296  -0.27869  -0.25073
 Alpha  occ. eigenvalues --   -0.24321  -0.22849  -0.22079  -0.21133  -0.19632
 Alpha virt. eigenvalues --   -0.11378  -0.04739  -0.01221   0.02671   0.06412
 Alpha virt. eigenvalues --    0.08049   0.08132   0.09345   0.09645   0.10163
 Alpha virt. eigenvalues --    0.11129   0.11472   0.12978   0.13619   0.14220

 Mulliken charges:
               1
     1  C    0.350558
     2  C   -0.067819
     3  C   -0.337173
     4  C   -0.336411
     5  C   -0.078191
     6  H    0.172762
     7  H    0.184202
     8  H    0.191413
     9  H    0.178073
    10  H    0.196588
    11  H    0.179085
    12  O   -0.656608
    13  N   -0.711652
    14  H    0.303448
    15  H    0.275210
    16  C   -0.140099
    17  H    0.130702
    18  H    0.134570
    19  O   -0.641945
    20  H    0.392755
    21  C    0.028830
    22  C    0.052020
    23  C   -0.187617
    24  C    0.018578
    25  C    0.079274
    26  H    0.154141
    27  C   -0.174190
    28  C    0.036546
    29  C   -0.130427
    30  H    0.139847
    31  C   -0.175713
    32  C   -0.130822
    33  H    0.136040
    34  H    0.139752
    35  H    0.136062
    36  C   -0.484245
    37  H    0.160376
    38  H    0.156591
    39  H    0.157416
    40  C   -0.482064
    41  H    0.161053
    42  H    0.144850
    43  H    0.159923
    44  C    0.033998
    45  H    0.150316
 Sum of Mulliken charges =   0.00000

 Dipole moment (field-independent basis, Debye):
    X=             -8.6184    Y=             -0.2135    Z=              2.4091  Tot=              8.9513
 Quadrupole moment (field-independent basis, Debye-Ang):
   XX=           -144.6510   YY=           -121.3178   ZZ=           -129.6596
   XY=             -9.6394   XZ=             -4.5338   YZ=             -1.2253

  Exact polarizability: 310.354  -3.033 237.393 -11.326 -22.201 202.181
 Approx polarizability: 454.623  -9.878 378.945 -20.312 -76.250 314.162

                      1                      2                      3
                      A                      A                      A
 Frequencies --     40.2743                50.8603                68.1440
 Red. masses --      4.4721                 4.9210                 4.5001
 Frc consts  --      0.0043                 0.0075                 0.0123
 IR Inten    --      5.4806                 0.4443                 0.6088

                      4                      5                      6
                      A                      A                      A
 Frequencies --     77.5511               103.8459               125.2239
 Red. masses --      4.2733                 3.9200                 4.5214
 Frc consts  --      0.0151                 0.0249                 0.0418
 IR Inten    --      0.3697                 2.3579                11.5435

                      7                      8                      9
                      A                      A                      A
 Frequencies --    133.3345               146.9064               157.7542
 Red. masses --      3.1404                 5.1243                 4.0029
 Frc consts  --      0.0329                 0.0652                 0.0587
 IR Inten    --      0.2053                 1.7940                 1.3497

                     10                     11                     12
                      A                      A                      A
 Frequencies --    163.6608               181.9638               196.5065
 Red. masses --      2.5959                 3.1222                 2.3865
 Frc consts  --      0.0410                 0.0609                 0.0543
 IR Inten    --     14.3379                 5.1071                 1.8263

                     13                     14                     15
                      A                      A                      A
 Frequencies --    206.5351               222.2798               231.9823
 Red. masses --      1.3000                 2.7918                 1.2571
 Frc consts  --      0.0327                 0.0813                 0.0399
 IR Inten    --      1.3313                 2.6927                 0.2404

                     16                     17                     18
                      A                      A                      A
 Frequencies --    240.1340               263.9543               289.5399
 Red. masses --      2.0052                 3.1018                 2.9556
 Frc consts  --      0.0681                 0.1273                 0.1460
 IR Inten    --      8.7472                10.7113                 0.5493

                     19                     20                     21
                      A                      A                      A
 Frequencies --    304.9623               325.2249               344.5487
 Red. masses --      3.4493                 3.0229                 2.9149
 Frc consts  --      0.1890                 0.1884                 0.2039
 IR Inten    --     12.5183                42.6681                 0.9991

                     22                     23                     24
                      A                      A                      A
 Frequencies --    372.4887               385.0815               434.9111
 Red. masses --      4.8871                 3.3081                 2.6779
 Frc consts  --      0.3995                 0.2890                 0.2984
 IR Inten    --     11.0511                 3.7935                26.8700

                     25                     26                     27
                      A                      A                      A
 Frequencies --    438.0887               459.5868               481.6753
 Red. masses --      3.2004                 1.7381                 4.4904
 Frc consts  --      0.3619                 0.2163                 0.6138
 IR Inten    --     16.6900                38.1528                 3.8451

                     28                     29                     30
                      A                      A                      A
 Frequencies --    500.5816               519.5722               540.0374
 Red. masses --      4.2584                 4.1974                 2.0812
 Frc consts  --      0.6287                 0.6676                 0.3576
 IR Inten    --      1.9545                 1.3004                 7.2472

                     31                     32                     33
                      A                      A                      A
 Frequencies --    563.7811               593.2026               605.9777
 Red. masses --      4.0043                 3.3932                 3.3094
 Frc consts  --      0.7499                 0.7035                 0.7160
 IR Inten    --      0.1863                 1.7685                 8.8963

                     34                     35                     36
                      A                      A                      A
 Frequencies --    624.5091               648.9401               667.7938
 Red. masses --      3.2368                 4.0628                 7.9369
 Frc consts  --      0.7438                 1.0081                 2.0854
 IR Inten    --      2.6821                17.5550                14.9627

                     37                     38                     39
                      A                      A                      A
 Frequencies --    709.7513               713.4917               734.7499
 Red. masses --      1.7479                 2.4285                 5.0997
 Frc consts  --      0.5188                 0.7284                 1.6221
 IR Inten    --     16.9950                11.4500                 1.0856

                     40                     41                     42
                      A                      A                      A
 Frequencies --    782.6667               787.4657               791.0893
 Red. masses --      1.7174                 3.9155                 1.3386
 Frc consts  --      0.6198                 1.4306                 0.4936
 IR Inten    --    380.6060                53.3754                78.1875

                     43                     44                     45
                      A                      A                      A
 Frequencies --    793.2534               805.5191               850.7270
 Red. masses --      3.4638                 2.4283                 1.5244
 Frc consts  --      1.2842                 0.9283                 0.6500
 IR Inten    --     22.7538               119.3327                 8.1256

                     46                     47                     48
                      A                      A                      A
 Frequencies --    851.6623               900.7571               907.5395
 Red. masses --      2.1849                 1.4788                 1.9724
 Frc consts  --      0.9337                 0.7069                 0.9571
 IR Inten    --     18.2056                 2.2710                20.9111

                     49                     50                     51
                      A                      A                      A
 Frequencies --    909.3647               924.0693               938.1606
 Red. masses --      1.6546                 3.0937                 1.5165
 Frc consts  --      0.8061                 1.5565                 0.7864
 IR Inten    --      8.9673                13.1686                79.2943

                     52                     53                     54
                      A                      A                      A
 Frequencies --    947.5693               983.8771               989.4242
 Red. masses --      1.7228                 1.4167                 1.5036
 Frc consts  --      0.9114                 0.8080                 0.8672
 IR Inten    --     14.8211                23.8508                14.6182

                     55                     56                     57
                      A                      A                      A
 Frequencies --    991.5420              1004.4200              1016.9376
 Red. masses --      2.5874                 1.6717                 2.0971
 Frc consts  --      1.4988                 0.9937                 1.2778
 IR Inten    --      9.1845                24.6843                 2.7305

                     58                     59                     60
                      A                      A                      A
 Frequencies --   1026.0193              1035.2767              1043.1918
 Red. masses --      1.3242                 2.9263                 2.9725
 Frc consts  --      0.8214                 1.8479                 1.9059
 IR Inten    --      0.2266                45.2861                31.0292

                     61                     62                     63
                      A                      A                      A
 Frequencies --   1074.2842              1085.3880              1097.2662
 Red. masses --      2.9988                 1.5026                 1.7805
 Frc consts  --      2.0391                 1.0429                 1.2630
 IR Inten    --      1.2778                 0.7442                 8.8073

                     64                     65                     66
                      A                      A                      A
 Frequencies --   1099.1251              1103.7053              1112.8221
 Red. masses --      1.6987                 1.4470                 3.3374
 Frc consts  --      1.2091                 1.0385                 2.4351
 IR Inten    --      4.3766                12.4345                 0.3358

                     67                     68                     69
                      A                      A                      A
 Frequencies --   1120.3900              1155.3986              1159.3461
 Red. masses --      1.9914                 1.1592                 2.6009
 Frc consts  --      1.4728                 0.9117                 2.0597
 IR Inten    --      1.8336                 1.9708                 7.1532

                     70                     71                     72
                      A                      A                      A
 Frequencies --   1202.4406              1212.9827              1217.8495
 Red. masses --      1.1296                 1.3624                 1.4266
 Frc consts  --      0.9623                 1.1810                 1.2467
 IR Inten    --      1.2386                10.5783                 6.6517

                     73                     74                     75
                      A                      A                      A
 Frequencies --   1226.8651              1257.2583              1273.9855
 Red. masses --      1.1345                 2.0635                 2.6068
 Frc consts  --      1.0061                 1.9218                 2.4928
 IR Inten    --      2.8551                 7.4658                33.1018

                     76                     77                     78
                      A                      A                      A
 Frequencies --   1279.4385              1294.0671              1297.7987
 Red. masses --      1.9587                 1.6800                 1.5168
 Frc consts  --      1.8891                 1.6575                 1.5052
 IR Inten    --     18.0814                33.6912                21.7846

                     79                     80                     81
                      A                      A                      A
 Frequencies --   1333.9770              1336.5958              1356.8340
 Red. masses --      1.3609                 1.7106                 1.8725
 Frc consts  --      1.4268                 1.8005                 2.0311
 IR Inten    --      6.0051                 3.9447                82.8460

                     82                     83                     84
                      A                      A                      A
 Frequencies --   1359.2405              1375.3411              1393.7553
 Red. masses --      1.8622                 3.2559                 4.6800
 Frc consts  --      2.0271                 3.6286                 5.3563
 IR Inten    --     83.8143                20.5580                 4.3524

                     85                     86                     87
                      A                      A                      A
 Frequencies --   1405.3604              1419.0557              1435.5629
 Red. masses --      1.5065                 3.5915                 1.2071
 Frc consts  --      1.7530                 4.2611                 1.4657
 IR Inten    --      1.4893                20.5480                 9.2715

                     88                     89                     90
                      A                      A                      A
 Frequencies --   1438.8461              1460.5844              1462.6157
 Red. masses --      3.4396                 1.3730                 1.2073
 Frc consts  --      4.1955                 1.7257                 1.5216
 IR Inten    --     19.7491                 8.1360                 7.8277

                     91                     92                     93
                      A                      A                      A
 Frequencies --   1474.0823              1478.4523              1485.0063
 Red. masses --      1.8990                 1.1999                 1.1076
 Frc consts  --      2.4312                 1.5453                 1.4391
 IR Inten    --      2.4878               188.2805                 8.0018

                     94                     95                     96
                      A                      A                      A
 Frequencies --   1495.5374              1510.7424              1523.6513
 Red. masses --      1.0801                 2.0765                 1.0800
 Frc consts  --      1.4233                 2.7923                 1.4772
 IR Inten    --     39.9103                 1.3312                 4.6315

                     97                     98                     99
                      A                      A                      A
 Frequencies --   1529.7679              1536.7127              1545.5552
 Red. masses --      1.0539                 1.1166                 1.1474
 Frc consts  --      1.4531                 1.5535                 1.6148
 IR Inten    --     12.0632                 1.7643                15.7338

                    100                    101                    102
                      A                      A                      A
 Frequencies --   1553.7280              1575.0435              1603.6000
 Red. masses --      1.1056                 2.5547                 4.6854
 Frc consts  --      1.5725                 3.7340                 7.0989
 IR Inten    --     10.6259                24.4848               260.6851

                    103                    104                    105
                      A                      A                      A
 Frequencies --   1618.9615              1649.0200              1667.8073
 Red. masses --      6.0500                 5.5240                 5.5622
 Frc consts  --      9.3428                 8.8502                 9.1157
 IR Inten    --     55.6920                51.1463                 2.1449

                    106                    107                    108
                      A                      A                      A
 Frequencies --   1746.1541              3017.9984              3020.9865
 Red. masses --      1.0814                 1.0611                 1.0660
 Frc consts  --      1.9427                 5.6941                 5.7318
 IR Inten    --     29.0582                 8.2095                18.1180

                    109                    110                    111
                      A                      A                      A
 Frequencies --   3038.2035              3045.6375              3046.2950
 Red. masses --      1.0380                 1.0885                 1.0508
 Frc consts  --      5.6454                 5.9491                 5.7454
 IR Inten    --     39.9111                 9.7798                17.9461

                    112                    113                    114
                      A                      A                      A
 Frequencies --   3048.5675              3057.7270              3066.5975
 Red. masses --      1.0765                 1.0925                 1.0714
 Frc consts  --      5.8946                 6.0183                 5.9360
 IR Inten    --     25.3197                 5.4805                96.7232

                    115                    116                    117
                      A                      A                      A
 Frequencies --   3091.7086              3101.6004              3137.8998
 Red. masses --      1.0978                 1.0965                 1.0959
 Frc consts  --      6.1825                 6.2147                 6.3579
 IR Inten    --     19.2261                20.1244                58.9278

                    118                    119                    120
                      A                      A                      A
 Frequencies --   3139.5814              3173.9274              3199.6399
 Red. masses --      1.0975                 1.0934                 1.0860
 Frc consts  --      6.3739                 6.4895                 6.5509
 IR Inten    --     18.0195                17.2388                 2.4329

                    121                    122                    123
                      A                      A                      A
 Frequencies --   3213.0424              3227.8865              3237.0709
 Red. masses --      1.0893                 1.0939                 1.0956
 Frc consts  --      6.6256                 6.7153                 6.7643
 IR Inten    --     16.7445                29.6537                25.9564

                    124                    125                    126
                      A                      A                      A
 Frequencies --   3247.8487              3248.2332              3250.9483
 Red. masses --      1.0904                 1.0919                 1.0933
 Frc consts  --      6.7765                 6.7876                 6.8081
 IR Inten    --      2.8221                 4.7851                 5.4814

                    127                    128                    129
                      A                      A                      A
 Frequencies --   3288.4971              3446.2966              3586.4041
 Red. masses --      1.0665                 1.0514                 1.0894
 Frc consts  --      6.7952                 7.3575                 8.2557
 IR Inten    --    238.1234                92.4277                21.3022

 - Thermochemistry -
 -------------------
 Temperature   298.150 Kelvin.  Pressure   1.00000 Atm.
 Atom     1 has atomic number  6 and mass  12.00000

 Molecular mass:   297.17288 amu.
 Principal axes and moments of inertia in atomic units:
                           1         2         3
     Eigenvalues --  4061.135917112.429807671.96070
           X            0.99957  -0.02917   0.00224
           Y            0.02923   0.99306  -0.11395
           Z            0.00110   0.11397   0.99348
 This molecule is an asymmetric top.
 Rotational symmetry number  1.
 Warning -- assumption of classical behavior for rotation
           may cause significant error
 Rotational temperatures (Kelvin)      0.02133     0.01218     0.01129
 Rotational constants (GHZ):           0.44439     0.25374     0.23524
 Zero-point vibrational energy    1011589.4 (Joules/Mol)
                                  241.77567 (Kcal/Mol)
 Warning -- explicit consideration of  33 degrees of freedom as
           vibrations may cause significant error
 Vibrational temperatures:     57.95    73.18    98.04   111.58   149.41
          (Kelvin)            180.17   191.84   211.37   226.97   235.47
                              261.81   282.73   297.16   319.81   333.77
                              345.50   379.77   416.58   438.77   467.93
                              495.73   535.93   554.05   625.74   630.31
                              661.24   693.02   720.23   747.55   776.99
                              811.16   853.49   871.87   898.53   933.68
                              960.81  1021.17  1026.56  1057.14  1126.08
                             1132.99  1138.20  1141.31  1158.96  1224.01
                             1225.35  1295.99  1305.75  1308.37  1329.53
                             1349.80  1363.34  1415.58  1423.56  1426.61
                             1445.14  1463.15  1476.21  1489.53  1500.92
                             1545.66  1561.63  1578.72  1581.40  1587.99
                             1601.10  1611.99  1662.36  1668.04  1730.04
                             1745.21  1752.21  1765.19  1808.91  1832.98
                             1840.83  1861.87  1867.24  1919.30  1923.06
                             1952.18  1955.64  1978.81  2005.30  2022.00
                             2041.70  2065.45  2070.18  2101.46  2104.38
                             2120.88  2127.16  2136.59  2151.74  2173.62
                             2192.19  2200.99  2210.99  2223.71  2235.47
                             2266.14  2307.22  2329.32  2372.57  2399.60
                             2512.33  4342.23  4346.53  4371.30  4381.99
                             4382.94  4386.21  4399.39  4412.15  4448.28
                             4462.51  4514.74  4517.16  4566.57  4603.57
                             4622.85  4644.21  4657.42  4672.93  4673.48
                             4677.39  4731.41  4958.45  5160.04

 Zero-point correction=                           0.385294 (Hartree/Particle)
 Thermal correction to Energy=                    0.405865
 Thermal correction to Enthalpy=                  0.406810
 Thermal correction to Gibbs Free Energy=         0.337576
 Sum of electronic and zero-point Energies=           -942.476669
 Sum of electronic and thermal Energies=              -942.456098
 Sum of electronic and thermal Enthalpies=            -942.455154
 Sum of electronic and thermal Free Energies=         -942.524387

                     E (Thermal)             CV                S
                      KCal/Mol        Cal/Mol-Kelvin    Cal/Mol-Kelvin
 Total                  254.684             81.487            145.714
 Electronic               0.000              0.000              0.000
 Translational            0.889              2.981             42.965
 Rotational               0.889              2.981             33.760
 Vibrational            252.907             75.525             68.989
 Vibration     1          0.594              1.981              5.246
 Vibration     2          0.595              1.977              4.784
 Vibration     3          0.598              1.969              4.206
 Vibration     4          0.599              1.964              3.952
 Vibration     5          0.605              1.946              3.381
 Vibration     6          0.610              1.928              3.018
 Vibration     7          0.613              1.920              2.897
 Vibration     8          0.617              1.906              2.712
 Vibration     9          0.621              1.894              2.577
 Vibration    10          0.623              1.887              2.507
 Vibration    11          0.630              1.864              2.308
 Vibration    12          0.636              1.845              2.166
 Vibration    13          0.641              1.831              2.074
 Vibration    14          0.648              1.807              1.940
 Vibration    15          0.653              1.792              1.864
 Vibration    16          0.657              1.779              1.802
 Vibration    17          0.671              1.739              1.635
 Vibration    18          0.686              1.693              1.477
 Vibration    19          0.696              1.664              1.390
 Vibration    20          0.709              1.625              1.284
 Vibration    21          0.723              1.586              1.191
 Vibration    22          0.744              1.529              1.070
 Vibration    23          0.754              1.502              1.019
 Vibration    24          0.796              1.394              0.843
 Vibration    25          0.798              1.387              0.833
 Vibration    26          0.818              1.340              0.767
 Vibration    27          0.838              1.291              0.706
 Vibration    28          0.856              1.249              0.657
 Vibration    29          0.875              1.207              0.611
 Vibration    30          0.895              1.162              0.565
 Vibration    31          0.920              1.110              0.516
 Vibration    32          0.951              1.046              0.461
 Vibration    33          0.965              1.019              0.439

                           ! Non-Optimized Parameters !

 1\1\GINC-HOLY7C07303\Freq\RB3LYP\6-31G\C19H23N1O2\ROOT\07-Dec-2017\0\\
 #P Geom=AllCheck Guess=TCheck SCRF=Check GenChk RB3LYP/6-31G Freq\\Com
 plex\\0,1\C,-0.8275000976,0.7338928399,-1.2595733987\C,-1.4819817375,0
 .6155176634,-2.5254070634\C,-2.6434878722,-0.3031800341,-2.5069183238\
 C,-2.6022696273,-0.9244159853,-1.0878634309\C,-1.4698032966,-0.2321154
 898,-0.4279301379\H,-1.1956268614,1.2046650953,-3.3884122862\H,-3.5852
 639678,0.2388067053,-2.6873603851\H,-2.5845339757,-1.0688865079,-3.292
 7260398\H,-3.546508729,-0.7895810224,-0.5396010564\H,-2.4381352616,-2.

 Normal termination of Gaussian 16 at Thu Dec  7 04:54:29 2017.
