 Gaussian 16, Revision A.03,
 Gaussian 16:  ES64L-G16RevA.03 25-Dec-2016

 ---------------------------------------------------------
 #p b3lyp empiricaldispersion=gd3bj midix opt freq=noraman
 ---------------------------------------------------------

 -------
 Complex
 -------
 Symbolic Z-matrix:
 Charge =  0 Multiplicity = 1

 SCF Done:  E(RB3LYP) =  -706.343237206     A.U. after   18 cycles
 SCF Done:  E(RB3LYP) =  -706.551207915     A.U. after   20 cycles
 SCF Done:  E(RB3LYP) =  -706.586847984     A.U. after   16 cycles
 SCF Done:  E(RB3LYP) =  -706.594251204     A.U. after   18 cycles
 SCF Done:  E(RB3LYP) =  -706.610496337     A.U. after   18 cycles
 SCF Done:  E(RB3LYP) =  -706.613505399     A.U. after   18 cycles
 SCF Done:  E(RB3LYP) =  -706.620882515     A.U. after   18 cycles
 SCF Done:  E(RB3LYP) =  -706.617916521     A.U. after   21 cycles
 SCF Done:  E(RB3LYP) =  -706.639456995     A.U. after   16 cycles
 SCF Done:  E(RB3LYP) =  -706.647891674     A.U. after   16 cycles
 SCF Done:  E(RB3LYP) =  -706.666642746     A.U. after    8 cycles
 SCF Done:  E(RB3LYP) =  -706.666643389     A.U. after    8 cycles
 SCF Done:  E(RB3LYP) =  -706.666644176     A.U. after    9 cycles
 SCF Done:  E(RB3LYP) =  -706.666644536     A.U. after    8 cycles
 SCF Done:  E(RB3LYP) =  -706.666644791     A.U. after    7 cycles
 SCF Done:  E(RB3LYP) =  -706.666644939     A.U. after    8 cycles
 SCF Done:  E(RB3LYP) =  -706.666645022     A.U. after    8 cycles
 SCF Done:  E(RB3LYP) =  -706.666645127     A.U. after    8 cycles
 SCF Done:  E(RB3LYP) =  -706.666645145     A.U. after    8 cycles
 Optimization completed.
    -- Stationary point found.

 1\1\GINC-HOLY7C13107\FOpt\RB3LYP\MIDIx\C13H17N1O2\ROOT\07-Dec-2017\0\\
 #p b3lyp empiricaldispersion=gd3bj midix opt freq=noraman\\Complex\\0,
 1\C,-8.6967325756,-3.1059223109,0.7179608619\C,-9.7273503291,-3.430047
 1706,1.6524026604\C,-10.6069130591,-4.546196043,1.2157047731\C,-9.9950
 987742,-4.9836459368,-0.1534047662\C,-8.7796391689,-4.1449019621,-0.28
 17400736\H,-9.885843086,-2.855092455,2.5590760451\H,-10.5876432791,-5.
 3856790449,1.9281756546\H,-11.6615166849,-4.2354883763,1.1243904169\H,
 -9.7747387993,-6.0592671923,-0.1825331541\H,-10.6967396687,-4.78710668

 Normal termination of Gaussian 16 at Thu Dec  7 20:04:49 2017.

 -----------------------------------------------------------------
 #P Geom=AllCheck Guess=TCheck SCRF=Check GenChk RB3LYP/MIDIx Freq
 -----------------------------------------------------------------

 Structure from the checkpoint file:  "/scratch/dhuang9_oac_cat1_nocp_b3lyp_d3bj_midix/Gau-105001.chk"
 -------
 Complex
 -------
 Charge =  0 Multiplicity = 1

                         Standard orientation:
 ---------------------------------------------------------------------
 Center     Atomic      Atomic             Coordinates (Angstroms)
 Number     Number       Type             X           Y           Z
 ---------------------------------------------------------------------
      1          6           0        0.721802   -1.397720    0.454498
      2          6           0        1.828841   -1.028208    1.278110
      3          6           0        3.093270   -0.813003    0.526426
      4          6           0        2.680803   -1.043623   -0.962475
      5          6           0        1.214694   -1.251689   -0.895127
      6          1           0        1.754370   -0.985901    2.359967
      7          1           0        3.481101    0.208816    0.661297
      8          1           0        3.894069   -1.498669    0.851462
      9          1           0        2.961390   -0.197839   -1.604571
     10          1           0        3.184324   -1.933273   -1.381962
     11          1           0        0.546234   -1.387039   -1.737973
     12          8           0       -0.450135   -1.743409    0.807221
     13          7           0       -3.212296   -0.590342    1.229538
     14          1           0       -3.129630    0.093462    1.994741
     15          1           0       -2.325683   -1.121696    1.240108
     16          6           0       -3.333321    0.140329   -0.061330
     17          1           0       -4.088373   -0.373893   -0.675850
     18          1           0       -3.703365    1.159809    0.127712
     19          8           0       -1.699783   -1.110251   -1.411738
     20          1           0       -1.321379   -1.540299   -0.565188
     21          6           0       -0.865063    0.954725   -0.435710
     22          6           0       -0.656583    1.236537    0.912258
     23          6           0        0.162206    1.264047   -1.341050
     24          6           0        0.541757    1.805581    1.348261
     25          1           0       -1.414845    0.954070    1.627697
     26          6           0        1.333142    1.909375   -0.923021
     27          1           0        0.008688    1.050467   -2.397184
     28          6           0        1.531239    2.172459    0.427305
     29          1           0        0.687748    2.003998    2.407634
     30          1           0        2.086728    2.192443   -1.654811
     31          1           0        2.442756    2.658823    0.767327
     32          6           0       -2.082010    0.209293   -0.977687
     33          1           0       -2.403373    0.729777   -1.893780
 ---------------------------------------------------------------------

 SCF Done:  E(RB3LYP) =  -706.666645145     A.U. after    1 cycles

 The electronic state is 1-A.
 Alpha  occ. eigenvalues --  -18.97687 -18.97238 -14.18582 -10.18965 -10.17394
 Alpha  occ. eigenvalues --  -10.16859 -10.15891 -10.15776 -10.15688 -10.13835
 Alpha  occ. eigenvalues --  -10.13759 -10.13694 -10.13692 -10.13378 -10.12593
 Alpha  occ. eigenvalues --  -10.12094  -0.99747  -0.96851  -0.88396  -0.87372
 Alpha  occ. eigenvalues --   -0.84466  -0.77451  -0.76327  -0.74306  -0.72399
 Alpha  occ. eigenvalues --   -0.69643  -0.62430  -0.61759  -0.60552  -0.57129
 Alpha  occ. eigenvalues --   -0.55097  -0.52262  -0.50092  -0.49666  -0.48063
 Alpha  occ. eigenvalues --   -0.46818  -0.46205  -0.44983  -0.43353  -0.43103
 Alpha  occ. eigenvalues --   -0.42325  -0.40601  -0.40094  -0.39752  -0.39115
 Alpha  occ. eigenvalues --   -0.38598  -0.37766  -0.36984  -0.36022  -0.35254
 Alpha  occ. eigenvalues --   -0.35126  -0.34458  -0.29541  -0.26574  -0.25892
 Alpha  occ. eigenvalues --   -0.23042  -0.22296  -0.21388  -0.19351
 Alpha virt. eigenvalues --   -0.11516  -0.01117  -0.00480   0.06025   0.06571
 Alpha virt. eigenvalues --    0.08890   0.10495   0.10807   0.12238   0.12783
 Alpha virt. eigenvalues --    0.13122   0.13961   0.14862   0.15894   0.16412

 Mulliken charges:
               1
     1  C    0.407508
     2  C   -0.089651
     3  C   -0.374977
     4  C   -0.378761
     5  C   -0.092410
     6  H    0.193400
     7  H    0.206559
     8  H    0.198736
     9  H    0.202926
    10  H    0.210131
    11  H    0.213625
    12  O   -0.654976
    13  N   -0.721733
    14  H    0.252346
    15  H    0.287745
    16  C   -0.062241
    17  H    0.156018
    18  H    0.133656
    19  O   -0.665934
    20  H    0.374769
    21  C   -0.112574
    22  C   -0.113693
    23  C   -0.135170
    24  C   -0.173168
    25  H    0.138866
    26  C   -0.170935
    27  H    0.171687
    28  C   -0.167488
    29  H    0.164606
    30  H    0.162032
    31  H    0.161819
    32  C    0.134597
    33  H    0.142688
 Sum of Mulliken charges =   0.00000

 Dipole moment (field-independent basis, Debye):
    X=              6.5760    Y=              2.4837    Z=             -0.0709  Tot=              7.0298
 Quadrupole moment (field-independent basis, Debye-Ang):
   XX=            -93.9998   YY=           -100.5653   ZZ=            -91.3772
   XY=             -9.3388   XZ=              0.6088   YZ=              2.2608

  Exact polarizability: 170.649   2.545 120.229   4.549   3.545 140.971
 Approx polarizability: 264.120  25.714 190.987  22.429  13.056 312.507

                      1                      2                      3
                      A                      A                      A
 Frequencies --     53.4554                89.0549                94.5854
 Red. masses --      4.7753                 5.5665                 3.6484
 Frc consts  --      0.0080                 0.0260                 0.0192
 IR Inten    --      1.8732                 1.4866                 1.3870

                      4                      5                      6
                      A                      A                      A
 Frequencies --    122.6405               142.1446               147.9915
 Red. masses --      4.6871                 4.1103                 3.8588
 Frc consts  --      0.0415                 0.0489                 0.0498
 IR Inten    --      2.2457                 5.5930                 4.5059

                      7                      8                      9
                      A                      A                      A
 Frequencies --    158.9981               183.8831               191.8132
 Red. masses --      2.9991                 3.7881                 4.8023
 Frc consts  --      0.0447                 0.0755                 0.1041
 IR Inten    --      1.5930                 1.2204                 3.4688

                     10                     11                     12
                      A                      A                      A
 Frequencies --    216.2113               255.6398               266.4219
 Red. masses --      2.0148                 2.7235                 3.5694
 Frc consts  --      0.0555                 0.1049                 0.1493
 IR Inten    --      2.0377                 6.2234                19.8341

                     13                     14                     15
                      A                      A                      A
 Frequencies --    281.8486               325.1924               359.5033
 Red. masses --      3.1770                 4.3067                 1.8846
 Frc consts  --      0.1487                 0.2683                 0.1435
 IR Inten    --      6.3355                 8.4489                13.7445

                     16                     17                     18
                      A                      A                      A
 Frequencies --    369.1110               422.0772               475.5731
 Red. masses --      2.0759                 2.8869                 6.0513
 Frc consts  --      0.1666                 0.3030                 0.8064
 IR Inten    --      8.7327                 0.7416                14.3754

                     19                     20                     21
                      A                      A                      A
 Frequencies --    513.7617               548.6422               579.9631
 Red. masses --      3.7945                 2.1877                 3.5379
 Frc consts  --      0.5901                 0.3880                 0.7011
 IR Inten    --      1.4104                 5.1086                12.3957

                     22                     23                     24
                      A                      A                      A
 Frequencies --    657.2431               664.5685               710.0758
 Red. masses --      6.3233                 6.6954                 3.8536
 Frc consts  --      1.6093                 1.7422                 1.1448
 IR Inten    --      0.9438                 5.3543                 2.6433

                     25                     26                     27
                      A                      A                      A
 Frequencies --    718.1823               741.9503               770.5155
 Red. masses --      1.5866                 1.8214                 2.6952
 Frc consts  --      0.4822                 0.5907                 0.9428
 IR Inten    --     22.8348                36.0682                36.1638

                     28                     29                     30
                      A                      A                      A
 Frequencies --    787.8156               820.2787               862.0036
 Red. masses --      4.6993                 2.3153                 2.4698
 Frc consts  --      1.7184                 0.9179                 1.0812
 IR Inten    --      1.7656                21.6088                12.5907

                     31                     32                     33
                      A                      A                      A
 Frequencies --    867.1610               890.9924               898.9505
 Red. masses --      1.3995                 2.3246                 1.2746
 Frc consts  --      0.6201                 1.0873                 0.6069
 IR Inten    --     10.7748                13.0088                15.1101

                     34                     35                     36
                      A                      A                      A
 Frequencies --    917.5670               922.5716               969.0310
 Red. masses --      1.6315                 1.4899                 1.7898
 Frc consts  --      0.8093                 0.7471                 0.9902
 IR Inten    --    116.3463                 9.0232                14.1751

                     37                     38                     39
                      A                      A                      A
 Frequencies --    978.7479               996.1788              1006.4819
 Red. masses --      1.9003                 1.9728                 2.0043
 Frc consts  --      1.0726                 1.1535                 1.1963
 IR Inten    --     16.1524                14.0074                30.8992

                     40                     41                     42
                      A                      A                      A
 Frequencies --   1015.0001              1031.2307              1045.0458
 Red. masses --      2.0417                 1.4561                 1.5722
 Frc consts  --      1.2393                 0.9123                 1.0117
 IR Inten    --      1.6365                 4.0950                 6.1754

                     43                     44                     45
                      A                      A                      A
 Frequencies --   1049.9444              1054.5873              1064.7775
 Red. masses --      2.1038                 1.4901                 2.0170
 Frc consts  --      1.3664                 0.9764                 1.3473
 IR Inten    --    117.3735               145.5080                38.6366

                     46                     47                     48
                      A                      A                      A
 Frequencies --   1073.0328              1084.4580              1112.5568
 Red. masses --      2.5823                 1.7940                 1.7240
 Frc consts  --      1.7518                 1.2431                 1.2573
 IR Inten    --      4.5835                 7.6141                23.5067

                     49                     50                     51
                      A                      A                      A
 Frequencies --   1132.6595              1159.1048              1201.5774
 Red. masses --      2.5595                 1.1364                 1.8231
 Frc consts  --      1.9347                 0.8996                 1.5509
 IR Inten    --     54.5562                 3.7375                 0.5187

                     52                     53                     54
                      A                      A                      A
 Frequencies --   1215.4302              1217.0211              1232.8426
 Red. masses --      1.1408                 1.1026                 1.1706
 Frc consts  --      0.9929                 0.9622                 1.0482
 IR Inten    --      1.4637                 1.0446                 0.0387

                     55                     56                     57
                      A                      A                      A
 Frequencies --   1240.1571              1247.5166              1264.2832
 Red. masses --      1.9236                 1.8177                 2.1514
 Frc consts  --      1.7431                 1.6667                 2.0261
 IR Inten    --      9.9222                37.0062                29.7572

                     58                     59                     60
                      A                      A                      A
 Frequencies --   1308.3642              1329.4564              1334.3865
 Red. masses --      1.3858                 1.2640                 2.5164
 Frc consts  --      1.3977                 1.3163                 2.6399
 IR Inten    --      0.0503                 3.2662                14.8725

                     61                     62                     63
                      A                      A                      A
 Frequencies --   1346.2248              1363.5612              1367.9319
 Red. masses --      1.5814                 1.9080                 3.9298
 Frc consts  --      1.6887                 2.0902                 4.3326
 IR Inten    --     46.3113                41.7357                 4.3460

                     64                     65                     66
                      A                      A                      A
 Frequencies --   1392.2521              1412.6267              1432.8321
 Red. masses --      1.2769                 1.2788                 1.2869
 Frc consts  --      1.4583                 1.5035                 1.5566
 IR Inten    --      3.2209                 0.9449                 4.9401

                     67                     68                     69
                      A                      A                      A
 Frequencies --   1481.3141              1492.4797              1504.1284
 Red. masses --      1.0812                 1.0791                 1.9326
 Frc consts  --      1.3978                 1.4162                 2.5761
 IR Inten    --     12.7290                31.7601                16.3947

                     70                     71                     72
                      A                      A                      A
 Frequencies --   1533.4111              1554.6937              1569.5156
 Red. masses --      1.0868                 2.0257                 1.1292
 Frc consts  --      1.5056                 2.8848                 1.6390
 IR Inten    --      3.9628                21.3567                68.2576

                     73                     74                     75
                      A                      A                      A
 Frequencies --   1618.1354              1637.8834              1641.9274
 Red. masses --      4.8202                 5.0701                 5.7187
 Frc consts  --      7.4362                 8.0137                 9.0835
 IR Inten    --      4.7682                10.0358               318.7270

                     76                     77                     78
                      A                      A                      A
 Frequencies --   1712.0484              2972.3663              2991.3498
 Red. masses --      1.0731                 1.0761                 1.0718
 Frc consts  --      1.8531                 5.6013                 5.6505
 IR Inten    --     20.7211               356.1021                 4.5816

                     79                     80                     81
                      A                      A                      A
 Frequencies --   2999.0784              3005.3389              3014.7682
 Red. masses --      1.0618                 1.0648                 1.0787
 Frc consts  --      5.6268                 5.6664                 5.7766
 IR Inten    --    240.2090                 0.7677                11.3772

                     82                     83                     84
                      A                      A                      A
 Frequencies --   3036.7403              3036.9479              3067.8015
 Red. masses --      1.0929                 1.0990                 1.0842
 Frc consts  --      5.9381                 5.9721                 6.0122
 IR Inten    --     23.7235                15.5036                11.9742

                     85                     86                     87
                      A                      A                      A
 Frequencies --   3170.0214              3178.8716              3186.8910
 Red. masses --      1.0852                 1.0878                 1.0918
 Frc consts  --      6.4250                 6.4764                 6.5335
 IR Inten    --      0.6918                 3.3977                16.7737

                     88                     89                     90
                      A                      A                      A
 Frequencies --   3198.4665              3231.6064              3240.5430
 Red. masses --      1.0975                 1.0922                 1.0933
 Frc consts  --      6.6153                 6.7205                 6.7642
 IR Inten    --     15.1715                 2.6387                12.0536

                     91                     92                     93
                      A                      A                      A
 Frequencies --   3281.3474              3318.5801              3394.2924
 Red. masses --      1.0890                 1.0504                 1.0906
 Frc consts  --      6.9086                 6.8157                 7.4032
 IR Inten    --      3.7959                65.4428                50.8879

 - Thermochemistry -
 -------------------
 Temperature   298.150 Kelvin.  Pressure   1.00000 Atm.
 Atom     1 has atomic number  6 and mass  12.00000

 Molecular mass:   219.12593 amu.
 Principal axes and moments of inertia in atomic units:
                           1         2         3
     Eigenvalues --  2148.914453783.327484281.78091
           X            0.99995  -0.00712  -0.00693
           Y            0.00726   0.99976   0.02075
           Z            0.00678  -0.02080   0.99976
 This molecule is an asymmetric top.
 Rotational symmetry number  1.
 Warning -- assumption of classical behavior for rotation
           may cause significant error
 Rotational temperatures (Kelvin)      0.04031     0.02289     0.02023
 Rotational constants (GHZ):           0.83984     0.47702     0.42149
 Zero-point vibrational energy     734376.9 (Joules/Mol)
                                  175.52030 (Kcal/Mol)
 Warning -- explicit consideration of  21 degrees of freedom as
           vibrations may cause significant error
 Vibrational temperatures:     76.91   128.13   136.09   176.45   204.51
          (Kelvin)            212.93   228.76   264.57   275.98   311.08
                              367.81   383.32   405.52   467.88   517.25
                              531.07   607.27   684.24   739.19   789.37
                              834.44   945.63   956.17  1021.64  1033.30
                             1067.50  1108.60  1133.49  1180.20  1240.23
                             1247.65  1281.94  1293.39  1320.17  1327.37
                             1394.22  1408.20  1433.28  1448.10  1460.36
                             1483.71  1503.59  1510.64  1517.32  1531.98
                             1543.85  1560.29  1600.72  1629.64  1667.69
                             1728.80  1748.73  1751.02  1773.79  1784.31
                             1794.90  1819.02  1882.44  1912.79  1919.88
                             1936.92  1961.86  1968.15  2003.14  2032.45
                             2061.53  2131.28  2147.35  2164.11  2206.24
                             2236.86  2258.18  2328.14  2356.55  2362.37
                             2463.26  4276.57  4303.89  4315.00  4324.01
                             4337.58  4369.19  4369.49  4413.88  4560.95
                             4573.69  4585.23  4601.88  4649.56  4662.42
                             4721.13  4774.70  4883.63

 Zero-point correction=                           0.279709 (Hartree/Particle)
 Thermal correction to Energy=                    0.294591
 Thermal correction to Enthalpy=                  0.295535
 Thermal correction to Gibbs Free Energy=         0.238599
 Sum of electronic and zero-point Energies=           -706.386936
 Sum of electronic and thermal Energies=              -706.372054
 Sum of electronic and thermal Enthalpies=            -706.371110
 Sum of electronic and thermal Free Energies=         -706.428047

                     E (Thermal)             CV                S
                      KCal/Mol        Cal/Mol-Kelvin    Cal/Mol-Kelvin
 Total                  184.859             58.196            119.833
 Electronic               0.000              0.000              0.000
 Translational            0.889              2.981             42.056
 Rotational               0.889              2.981             31.921
 Vibrational            183.081             52.234             45.856
 Vibration     1          0.596              1.976              4.685
 Vibration     2          0.602              1.957              3.681
 Vibration     3          0.603              1.953              3.563
 Vibration     4          0.610              1.930              3.058
 Vibration     5          0.616              1.911              2.775
 Vibration     6          0.617              1.905              2.698
 Vibration     7          0.621              1.893              2.562
 Vibration     8          0.631              1.862              2.289
 Vibration     9          0.634              1.851              2.210
 Vibration    10          0.645              1.816              1.991
 Vibration    11          0.666              1.753              1.691
 Vibration    12          0.672              1.735              1.619
 Vibration    13          0.681              1.707              1.522
 Vibration    14          0.709              1.625              1.284
 Vibration    15          0.734              1.556              1.124
 Vibration    16          0.741              1.536              1.083
 Vibration    17          0.784              1.422              0.885
 Vibration    18          0.832              1.304              0.722
 Vibration    19          0.869              1.220              0.625
 Vibration    20          0.904              1.143              0.547
 Vibration    21          0.937              1.075              0.485

 Optimization completed.
    -- Stationary point found.

 1\1\GINC-HOLY7C13107\Freq\RB3LYP\MIDIx\C13H17N1O2\ROOT\07-Dec-2017\0\\
 #P Geom=AllCheck Guess=TCheck SCRF=Check GenChk RB3LYP/MIDIx Freq\\Com
 plex\\0,1\C,-8.6967325756,-3.1059223109,0.7179608619\C,-9.7273503291,-
 3.4300471706,1.6524026604\C,-10.6069130591,-4.546196043,1.2157047731\C
 ,-9.9950987742,-4.9836459368,-0.1534047662\C,-8.7796391689,-4.14490196
 21,-0.2817400736\H,-9.885843086,-2.855092455,2.5590760451\H,-10.587643
 2791,-5.3856790449,1.9281756546\H,-11.6615166849,-4.2354883763,1.12439
 04169\H,-9.7747387993,-6.0592671923,-0.1825331541\H,-10.6967396687,-4.

 Normal termination of Gaussian 16 at Thu Dec  7 20:15:39 2017.
