 Gaussian 16, Revision A.03,
 Gaussian 16:  ES64L-G16RevA.03 25-Dec-2016

 ---------------------------------------------------------
 #p b3lyp empiricaldispersion=gd3bj 6-31g opt freq=noraman
 ---------------------------------------------------------

 -------
 Complex
 -------
 Symbolic Z-matrix:
 Charge =  0 Multiplicity = 1

 SCF Done:  E(RB3LYP) =  -710.247316040     A.U. after   18 cycles
 SCF Done:  E(RB3LYP) =  -710.478943246     A.U. after   18 cycles
 SCF Done:  E(RB3LYP) =  -710.522612255     A.U. after   18 cycles
 SCF Done:  E(RB3LYP) =  -710.535282227     A.U. after   20 cycles
 SCF Done:  E(RB3LYP) =  -710.548081072     A.U. after   20 cycles
 SCF Done:  E(RB3LYP) =  -710.553280596     A.U. after   16 cycles
 SCF Done:  E(RB3LYP) =  -710.566331798     A.U. after   17 cycles
 SCF Done:  E(RB3LYP) =  -710.228888263     A.U. after   22 cycles
 SCF Done:  E(RB3LYP) =  -710.530095547     A.U. after   18 cycles
 SCF Done:  E(RB3LYP) =  -710.571112482     A.U. after   15 cycles
 SCF Done:  E(RB3LYP) =  -710.604281458     A.U. after    9 cycles
 SCF Done:  E(RB3LYP) =  -710.604282516     A.U. after   10 cycles
 SCF Done:  E(RB3LYP) =  -710.604283059     A.U. after    9 cycles
 SCF Done:  E(RB3LYP) =  -710.604283823     A.U. after    9 cycles
 SCF Done:  E(RB3LYP) =  -710.604284562     A.U. after    9 cycles
 SCF Done:  E(RB3LYP) =  -710.604284828     A.U. after    9 cycles
 SCF Done:  E(RB3LYP) =  -710.604284930     A.U. after    8 cycles
 SCF Done:  E(RB3LYP) =  -710.604285017     A.U. after    8 cycles
 SCF Done:  E(RB3LYP) =  -710.604285030     A.U. after    8 cycles
 Optimization completed.
    -- Stationary point found.

 1\1\GINC-HOLY2C01304\FOpt\RB3LYP\6-31G\C13H17N1O2\ROOT\02-Dec-2017\0\\
 #p b3lyp empiricaldispersion=gd3bj 6-31g opt freq=noraman\\Complex\\0,
 1\C,-8.7459652525,-3.0610245561,0.5746298644\C,-9.6642660011,-3.292501
 6545,1.6405081996\C,-10.6241119933,-4.3917254751,1.3694284383\C,-10.18
 94194722,-4.9311532183,-0.0171506076\C,-8.9906475287,-4.1261867351,-0.
 3521759304\H,-9.6753099478,-2.6936661038,2.5437414958\H,-10.5571933821
 ,-5.178486449,2.1328995205\H,-11.6678053741,-4.0422616534,1.3823788029
 \H,-9.9704956405,-6.0049345516,0.0115495441\H,-10.9789786566,-4.802530

 Normal termination of Gaussian 16 at Sat Dec  2 22:14:51 2017.

 -----------------------------------------------------------------
 #P Geom=AllCheck Guess=TCheck SCRF=Check GenChk RB3LYP/6-31G Freq
 -----------------------------------------------------------------

 Structure from the checkpoint file:  "/scratch/dhuang9_oac_cat1_nocp_complex_b3lyp_d3bj_631/Gau-107757.chk"
 -------
 Complex
 -------
 Charge =  0 Multiplicity = 1

                         Standard orientation:
 ---------------------------------------------------------------------
 Center     Atomic      Atomic             Coordinates (Angstroms)
 Number     Number       Type             X           Y           Z
 ---------------------------------------------------------------------
      1          6           0        0.795860   -1.548408    0.223395
      2          6           0        1.752072   -1.193351    1.219661
      3          6           0        3.073237   -0.807333    0.664148
      4          6           0        2.867953   -0.884017   -0.870296
      5          6           0        1.436607   -1.238950   -1.020425
      6          1           0        1.535944   -1.238806    2.280688
      7          1           0        3.354130    0.209448    0.970116
      8          1           0        3.880035   -1.466483    1.019375
      9          1           0        3.111899    0.063943   -1.363874
     10          1           0        3.516682   -1.643859   -1.334928
     11          1           0        0.919243   -1.312042   -1.969717
     12          8           0       -0.400254   -2.006004    0.390576
     13          7           0       -2.877181   -0.744256    1.313841
     14          1           0       -3.627715   -1.222509    1.794988
     15          1           0       -2.057801   -1.329916    1.161868
     16          6           0       -3.306847    0.055599    0.162439
     17          1           0       -4.128961   -0.416450   -0.399305
     18          1           0       -3.676495    1.035752    0.504957
     19          8           0       -1.820557   -0.913827   -1.571500
     20          1           0       -1.376218   -1.520630   -0.907802
     21          6           0       -0.951231    1.019785   -0.350294
     22          6           0       -0.699023    1.255605    1.007948
     23          6           0        0.021960    1.402647   -1.292394
     24          6           0        0.503457    1.853710    1.411534
     25          1           0       -1.424276    0.913373    1.738450
     26          6           0        1.203675    2.042504   -0.893189
     27          1           0       -0.167812    1.214620   -2.344390
     28          6           0        1.451294    2.266293    0.464047
     29          1           0        0.687067    2.022936    2.468279
     30          1           0        1.922972    2.364613   -1.640522
     31          1           0        2.364819    2.760158    0.781237
     32          6           0       -2.197009    0.308968   -0.869258
     33          1           0       -2.638773    0.935985   -1.652816
 ---------------------------------------------------------------------

 SCF Done:  E(RB3LYP) =  -710.604285030     A.U. after    1 cycles

 The electronic state is 1-A.
 Alpha  occ. eigenvalues --  -19.09068 -19.08820 -14.26677 -10.25737 -10.24575
 Alpha  occ. eigenvalues --  -10.24246 -10.22240 -10.22214 -10.21524 -10.19330
 Alpha  occ. eigenvalues --  -10.19165 -10.19070 -10.18793 -10.18641 -10.18206
 Alpha  occ. eigenvalues --  -10.17441  -0.99519  -0.96938  -0.88135  -0.85725
 Alpha  occ. eigenvalues --   -0.84291  -0.76136  -0.75037  -0.74327  -0.72633
 Alpha  occ. eigenvalues --   -0.69305  -0.61573  -0.61077  -0.60440  -0.56474
 Alpha  occ. eigenvalues --   -0.55858  -0.51779  -0.50260  -0.50050  -0.48057
 Alpha  occ. eigenvalues --   -0.46381  -0.44591  -0.44168  -0.43632  -0.43090
 Alpha  occ. eigenvalues --   -0.42212  -0.40909  -0.40247  -0.40074  -0.39027
 Alpha  occ. eigenvalues --   -0.38856  -0.37682  -0.37426  -0.36154  -0.34816
 Alpha  occ. eigenvalues --   -0.34590  -0.33296  -0.28717  -0.25554  -0.25016
 Alpha  occ. eigenvalues --   -0.23221  -0.22471  -0.21727  -0.18508
 Alpha virt. eigenvalues --   -0.12391  -0.00529   0.00102   0.05853   0.06918
 Alpha virt. eigenvalues --    0.09689   0.11454   0.12178   0.12533   0.12724
 Alpha virt. eigenvalues --    0.13835   0.14045   0.14786   0.15867   0.16384

 Mulliken charges:
               1
     1  C    0.346602
     2  C   -0.052054
     3  C   -0.326590
     4  C   -0.327297
     5  C   -0.057768
     6  H    0.171795
     7  H    0.185485
     8  H    0.173114
     9  H    0.180935
    10  H    0.180681
    11  H    0.193507
    12  O   -0.622206
    13  N   -0.761644
    14  H    0.270883
    15  H    0.335413
    16  C   -0.087797
    17  H    0.124457
    18  H    0.115061
    19  O   -0.645461
    20  H    0.388657
    21  C    0.075340
    22  C   -0.131429
    23  C   -0.156216
    24  C   -0.152205
    25  H    0.194153
    26  C   -0.139482
    27  H    0.142763
    28  C   -0.130649
    29  H    0.124622
    30  H    0.121334
    31  H    0.119589
    32  C    0.006897
    33  H    0.139512
 Sum of Mulliken charges =   0.00000

 Dipole moment (field-independent basis, Debye):
    X=              6.2875    Y=              1.2201    Z=              0.6179  Tot=              6.4345
 Quadrupole moment (field-independent basis, Debye-Ang):
   XX=            -81.4021   YY=           -100.1087   ZZ=            -93.6175
   XY=             -4.6224   XZ=             -2.8344   YZ=             -2.1736

  Exact polarizability: 174.359   8.797 120.733   2.181   0.264 144.933
 Approx polarizability: 257.864  33.520 181.626  13.325   4.152 317.163

                      1                      2                      3
                      A                      A                      A
 Frequencies --     28.0849                68.6049                82.9993
 Red. masses --      4.4720                 5.9944                 3.4740
 Frc consts  --      0.0021                 0.0166                 0.0141
 IR Inten    --      4.4613                 0.6746                 0.1819

                      4                      5                      6
                      A                      A                      A
 Frequencies --     97.7067               123.8586               139.3541
 Red. masses --      4.0526                 4.8822                 4.0408
 Frc consts  --      0.0228                 0.0441                 0.0462
 IR Inten    --      2.6165                 8.9064                 5.5564

                      7                      8                      9
                      A                      A                      A
 Frequencies --    155.7719               172.7620               194.0921
 Red. masses --      2.7522                 4.2682                 2.9783
 Frc consts  --      0.0393                 0.0751                 0.0661
 IR Inten    --     16.8577                 2.4092                 0.9747

                     10                     11                     12
                      A                      A                      A
 Frequencies --    201.3438               226.9973               259.3212
 Red. masses --      2.1374                 2.8298                 4.2035
 Frc consts  --      0.0511                 0.0859                 0.1665
 IR Inten    --      2.0475                 6.5657                35.6943

                     13                     14                     15
                      A                      A                      A
 Frequencies --    316.5717               323.2356               339.9834
 Red. masses --      4.0353                 3.5407                 1.3646
 Frc consts  --      0.2383                 0.2180                 0.0929
 IR Inten    --      9.7940                 9.1816                60.0634

                     16                     17                     18
                      A                      A                      A
 Frequencies --    379.0133               421.9811               462.5047
 Red. masses --      3.5237                 2.9756                 5.3657
 Frc consts  --      0.2982                 0.3122                 0.6762
 IR Inten    --      0.6951                 1.5284                 9.9819

                     19                     20                     21
                      A                      A                      A
 Frequencies --    511.2696               515.9002               567.8801
 Red. masses --      3.4926                 2.1778                 3.4824
 Frc consts  --      0.5379                 0.3415                 0.6617
 IR Inten    --      1.9705                 2.8617                 7.4949

                     22                     23                     24
                      A                      A                      A
 Frequencies --    650.2316               664.8620               694.2683
 Red. masses --      6.2798                 7.1447                 3.1774
 Frc consts  --      1.5644                 1.8608                 0.9024
 IR Inten    --      1.1987                 5.7697                16.8669

                     25                     26                     27
                      A                      A                      A
 Frequencies --    703.7272               729.7051               750.5005
 Red. masses --      1.4952                 1.9915                 1.4355
 Frc consts  --      0.4363                 0.6248                 0.4764
 IR Inten    --     26.9809                42.5455                67.3006

                     28                     29                     30
                      A                      A                      A
 Frequencies --    771.4545               786.1630               831.8024
 Red. masses --      1.8861                 4.9968                 2.6660
 Frc consts  --      0.6614                 1.8196                 1.0868
 IR Inten    --     58.7556                 3.0275                 1.6376

                     31                     32                     33
                      A                      A                      A
 Frequencies --    855.9427               888.1978               899.4035
 Red. masses --      1.1574                 2.5915                 1.2555
 Frc consts  --      0.4996                 1.2045                 0.5984
 IR Inten    --      3.5466                32.1791                 1.9416

                     34                     35                     36
                      A                      A                      A
 Frequencies --    908.7229               921.1330               943.2801
 Red. masses --      1.5291                 3.0827                 1.3135
 Frc consts  --      0.7440                 1.5411                 0.6886
 IR Inten    --      9.3874                25.4395               256.3965

                     37                     38                     39
                      A                      A                      A
 Frequencies --    962.9650               989.7673               990.4398
 Red. masses --      1.3999                 2.2843                 2.7714
 Frc consts  --      0.7649                 1.3185                 1.6018
 IR Inten    --     72.8475                52.0122                15.3665

                     40                     41                     42
                      A                      A                      A
 Frequencies --   1003.0318              1013.1318              1018.9697
 Red. masses --      1.6826                 1.3523                 2.1356
 Frc consts  --      0.9974                 0.8178                 1.3065
 IR Inten    --     17.2295                 2.1124                 1.8757

                     43                     44                     45
                      A                      A                      A
 Frequencies --   1035.6921              1053.2149              1071.3708
 Red. masses --      3.1995                 1.6179                 2.4405
 Frc consts  --      2.0220                 1.0574                 1.6504
 IR Inten    --      3.0384                 4.2813                 4.2948

                     46                     47                     48
                      A                      A                      A
 Frequencies --   1082.6881              1101.4669              1121.1104
 Red. masses --      2.0946                 1.4718                 1.8160
 Frc consts  --      1.4467                 1.0521                 1.3448
 IR Inten    --     14.2032                 5.3256                 1.6077

                     49                     50                     51
                      A                      A                      A
 Frequencies --   1151.5228              1154.6302              1204.8564
 Red. masses --      2.8686                 1.1457                 1.1314
 Frc consts  --      2.2411                 0.9000                 0.9677
 IR Inten    --     15.2366                 2.4618                 0.5985

                     52                     53                     54
                      A                      A                      A
 Frequencies --   1213.7008              1219.5110              1241.7200
 Red. masses --      1.1699                 1.0867                 1.3832
 Frc consts  --      1.0153                 0.9522                 1.2566
 IR Inten    --      3.2497                 0.3632                 0.2949

                     55                     56                     57
                      A                      A                      A
 Frequencies --   1244.1242              1273.8538              1283.8506
 Red. masses --      1.9686                 2.5091                 1.7799
 Frc consts  --      1.7953                 2.3988                 1.7285
 IR Inten    --     13.9183                15.2318                17.7910

                     58                     59                     60
                      A                      A                      A
 Frequencies --   1291.8320              1341.5409              1356.9715
 Red. masses --      1.1369                 1.3200                 1.8367
 Frc consts  --      1.1178                 1.3997                 1.9926
 IR Inten    --      4.4299                14.1339                61.9802

                     61                     62                     63
                      A                      A                      A
 Frequencies --   1361.3847              1372.0134              1378.0365
 Red. masses --      1.7835                 3.3484                 3.7762
 Frc consts  --      1.9476                 3.7137                 4.2250
 IR Inten    --     59.2061                 4.2851                26.1966

                     64                     65                     66
                      A                      A                      A
 Frequencies --   1392.4284              1413.5342              1456.4844
 Red. masses --      1.8773                 1.3700                 1.3342
 Frc consts  --      2.1445                 1.6128                 1.6676
 IR Inten    --     10.0488                 2.7394                 4.3404

                     67                     68                     69
                      A                      A                      A
 Frequencies --   1484.7049              1497.1767              1499.4163
 Red. masses --      1.1050                 1.1014                 1.1518
 Frc consts  --      1.4351                 1.4546                 1.5257
 IR Inten    --      6.2857                23.0712                49.7458

                     70                     71                     72
                      A                      A                      A
 Frequencies --   1507.7873              1554.9407              1562.9834
 Red. masses --      1.9401                 1.9811                 1.1063
 Frc consts  --      2.5987                 2.8221                 1.5924
 IR Inten    --     19.5412                14.9564                 3.2767

                     73                     74                     75
                      A                      A                      A
 Frequencies --   1619.7987              1632.1671              1655.1929
 Red. masses --      5.2794                 5.3161                 5.1259
 Frc consts  --      8.1612                 8.3440                 8.2740
 IR Inten    --    312.3713                14.4775                15.2880

                     76                     77                     78
                      A                      A                      A
 Frequencies --   1740.2962              2980.9565              3002.4642
 Red. masses --      1.0859                 1.0559                 1.1042
 Frc consts  --      1.9377                 5.5284                 5.8647
 IR Inten    --     46.0524                85.2541                65.6503

                     79                     80                     81
                      A                      A                      A
 Frequencies --   3017.9081              3027.1825              3056.3845
 Red. masses --      1.0702                 1.0656                 1.0837
 Frc consts  --      5.7431                 5.7533                 5.9647
 IR Inten    --      7.5044                15.8362                96.3225

                     82                     83                     84
                      A                      A                      A
 Frequencies --   3065.1166              3087.2026              3178.8038
 Red. masses --      1.0912                 1.0869                 1.0799
 Frc consts  --      6.0402                 6.1034                 6.4294
 IR Inten    --      7.3200                 9.8445               130.3632

                     85                     86                     87
                      A                      A                      A
 Frequencies --   3180.3174              3191.1955              3203.3026
 Red. masses --      1.0751                 1.0887                 1.0925
 Frc consts  --      6.4066                 6.5321                 6.6051
 IR Inten    --    250.7455                23.1824                11.2587

                     88                     89                     90
                      A                      A                      A
 Frequencies --   3209.8446              3216.3806              3248.7801
 Red. masses --      1.0942                 1.0991                 1.0930
 Frc consts  --      6.6423                 6.6992                 6.7966
 IR Inten    --     18.9395                31.1187                 2.1186

                     91                     92                     93
                      A                      A                      A
 Frequencies --   3254.7026              3479.1135              3635.0070
 Red. masses --      1.0935                 1.0527                 1.0928
 Frc consts  --      6.8249                 7.5075                 8.5076
 IR Inten    --      2.7870               199.1185                32.3622

 - Thermochemistry -
 -------------------
 Temperature   298.150 Kelvin.  Pressure   1.00000 Atm.
 Atom     1 has atomic number  6 and mass  12.00000

 Molecular mass:   219.12593 amu.
 Principal axes and moments of inertia in atomic units:
                           1         2         3
     Eigenvalues --  2299.162313776.436444418.43777
           X            0.99995   0.00477  -0.00870
           Y           -0.00480   0.99998  -0.00351
           Z            0.00868   0.00355   0.99996
 This molecule is an asymmetric top.
 Rotational symmetry number  1.
 Warning -- assumption of classical behavior for rotation
           may cause significant error
 Rotational temperatures (Kelvin)      0.03767     0.02294     0.01960
 Rotational constants (GHZ):           0.78496     0.47790     0.40846
 Zero-point vibrational energy     736741.8 (Joules/Mol)
                                  176.08550 (Kcal/Mol)
 Warning -- explicit consideration of  21 degrees of freedom as
           vibrations may cause significant error
 Vibrational temperatures:     40.41    98.71   119.42   140.58   178.20
          (Kelvin)            200.50   224.12   248.57   279.26   289.69
                              326.60   373.11   455.48   465.06   489.16
                              545.32   607.14   665.44   735.60   742.27
                              817.05   935.54   956.59   998.90  1012.51
                             1049.88  1079.80  1109.95  1131.11  1196.78
                             1231.51  1277.92  1294.04  1307.45  1325.31
                             1357.17  1385.49  1424.05  1425.02  1443.14
                             1457.67  1466.07  1490.13  1515.34  1541.46
                             1557.75  1584.77  1613.03  1656.78  1661.26
                             1733.52  1746.24  1754.60  1786.56  1790.02
                             1832.79  1847.17  1858.66  1930.18  1952.38
                             1958.73  1974.02  1982.69  2003.39  2033.76
                             2095.56  2136.16  2154.10  2157.33  2169.37
                             2237.21  2248.78  2330.53  2348.32  2381.45
                             2503.90  4288.93  4319.88  4342.10  4355.44
                             4397.46  4410.02  4441.80  4573.59  4575.77
                             4591.42  4608.84  4618.25  4627.65  4674.27
                             4682.79  5005.67  5229.96

 Zero-point correction=                           0.280610 (Hartree/Particle)
 Thermal correction to Energy=                    0.295871
 Thermal correction to Enthalpy=                  0.296815
 Thermal correction to Gibbs Free Energy=         0.238140
 Sum of electronic and zero-point Energies=           -710.323675
 Sum of electronic and thermal Energies=              -710.308414
 Sum of electronic and thermal Enthalpies=            -710.307470
 Sum of electronic and thermal Free Energies=         -710.366145

                     E (Thermal)             CV                S
                      KCal/Mol        Cal/Mol-Kelvin    Cal/Mol-Kelvin
 Total                  185.662             58.787            123.492
 Electronic               0.000              0.000              0.000
 Translational            0.889              2.981             42.056
 Rotational               0.889              2.981             32.017
 Vibrational            183.884             52.826             49.418
 Vibration     1          0.593              1.984              5.960
 Vibration     2          0.598              1.969              4.193
 Vibration     3          0.600              1.961              3.819
 Vibration     4          0.603              1.951              3.500
 Vibration     5          0.610              1.929              3.039
 Vibration     6          0.615              1.914              2.813
 Vibration     7          0.620              1.896              2.601
 Vibration     8          0.626              1.876              2.405
 Vibration     9          0.635              1.848              2.188
 Vibration    10          0.638              1.838              2.121
 Vibration    11          0.651              1.800              1.903
 Vibration    12          0.668              1.747              1.666
 Vibration    13          0.703              1.642              1.328
 Vibration    14          0.708              1.629              1.294
 Vibration    15          0.720              1.596              1.212
 Vibration    16          0.749              1.515              1.043
 Vibration    17          0.784              1.422              0.885
 Vibration    18          0.820              1.333              0.759
 Vibration    19          0.866              1.225              0.631
 Vibration    20          0.871              1.215              0.620
 Vibration    21          0.924              1.101              0.508

                           ! Non-Optimized Parameters !

 1\1\GINC-HOLY2C01304\Freq\RB3LYP\6-31G\C13H17N1O2\ROOT\02-Dec-2017\0\\
 #P Geom=AllCheck Guess=TCheck SCRF=Check GenChk RB3LYP/6-31G Freq\\Com
 plex\\0,1\C,-8.7459652525,-3.0610245561,0.5746298644\C,-9.6642660011,-
 3.2925016545,1.6405081996\C,-10.6241119933,-4.3917254751,1.3694284383\
 C,-10.1894194722,-4.9311532183,-0.0171506076\C,-8.9906475287,-4.126186
 7351,-0.3521759304\H,-9.6753099478,-2.6936661038,2.5437414958\H,-10.55
 71933821,-5.178486449,2.1328995205\H,-11.6678053741,-4.0422616534,1.38
 23788029\H,-9.9704956405,-6.0049345516,0.0115495441\H,-10.9789786566,-

 Normal termination of Gaussian 16 at Sat Dec  2 22:24:03 2017.
