 Gaussian 16, Revision A.03,
 Gaussian 16:  ES64L-G16RevA.03 25-Dec-2016

 ----------------------------------------------------------------------
 #p b3lyp empiricaldispersion=gd3bj 6-31g scrf=(pcm,solvent=benzene) op
 t freq=noraman
 ----------------------------------------------------------------------

 -------
 Complex
 -------
 Symbolic Z-matrix:
 Charge =  0 Multiplicity = 1

 SCF Done:  E(RB3LYP) =  -710.259067853     A.U. after   15 cycles
 SCF Done:  E(RB3LYP) =  -710.491192644     A.U. after   16 cycles
 SCF Done:  E(RB3LYP) =  -710.535374426     A.U. after   15 cycles
 SCF Done:  E(RB3LYP) =  -710.548823000     A.U. after   15 cycles
 SCF Done:  E(RB3LYP) =  -710.560729262     A.U. after   15 cycles
 SCF Done:  E(RB3LYP) =  -710.564451186     A.U. after   13 cycles
 SCF Done:  E(RB3LYP) =  -710.569514955     A.U. after   15 cycles
 SCF Done:  E(RB3LYP) =  -710.586147984     A.U. after   15 cycles
 SCF Done:  E(RB3LYP) =  -709.888815171     A.U. after   22 cycles
 SCF Done:  E(RB3LYP) =  -709.628470053     A.U. after   20 cycles
 SCF Done:  E(RB3LYP) =  -710.614663624     A.U. after   11 cycles
 SCF Done:  E(RB3LYP) =  -710.614684302     A.U. after   11 cycles
 SCF Done:  E(RB3LYP) =  -710.614695610     A.U. after   10 cycles
 SCF Done:  E(RB3LYP) =  -710.614699648     A.U. after   10 cycles
 SCF Done:  E(RB3LYP) =  -710.614705902     A.U. after   11 cycles
 SCF Done:  E(RB3LYP) =  -710.614709657     A.U. after   10 cycles
 SCF Done:  E(RB3LYP) =  -710.614710638     A.U. after    9 cycles
 SCF Done:  E(RB3LYP) =  -710.614711389     A.U. after    9 cycles
 SCF Done:  E(RB3LYP) =  -710.614711803     A.U. after    8 cycles
 Optimization completed.
    -- Stationary point found.

 1\1\GINC-HOLY7C07106\FOpt\RB3LYP\6-31G\C13H17N1O2\ROOT\07-Dec-2017\0\\
 #p b3lyp empiricaldispersion=gd3bj 6-31g scrf=(pcm,solvent=benzene) op
 t freq=noraman\\Complex\\0,1\C,-8.6101894537,-3.3312608043,0.061455198
 2\C,-8.9881743114,-3.0630442895,1.4162065399\C,-10.2018101121,-3.79852
 3824,1.8392848797\C,-10.5105747557,-4.7341434878,0.644864105\C,-9.4674
 684775,-4.3903669785,-0.3521442198\H,-8.4263698822,-2.3757267359,2.039
 7520438\H,-10.037194289,-4.358430289,2.7675105736\H,-11.032407163,-3.1
 061007775,2.049331352\H,-10.4493198814,-5.7891017513,0.9443087679\H,-1

 Normal termination of Gaussian 16 at Thu Dec  7 04:02:30 2017.

 -----------------------------------------------------------------
 #P Geom=AllCheck Guess=TCheck SCRF=Check GenChk RB3LYP/6-31G Freq
 -----------------------------------------------------------------

 Structure from the checkpoint file:  "/scratch/dhuang9_oac_cat1_nocp_b3lyp_d3bj_631g_b/Gau-79769.chk"
 -------
 Complex
 -------
 Charge =  0 Multiplicity = 1

                         Standard orientation:
 ---------------------------------------------------------------------
 Center     Atomic      Atomic             Coordinates (Angstroms)
 Number     Number       Type             X           Y           Z
 ---------------------------------------------------------------------
      1          6           0        0.764487   -1.487613   -0.545094
      2          6           0        1.081640   -1.430023    0.849990
      3          6           0        2.511188   -1.145725    1.111533
      4          6           0        3.099354   -0.852447   -0.290398
      5          6           0        1.949400   -1.054319   -1.205347
      6          1           0        0.328575   -1.594107    1.613408
      7          1           0        2.640583   -0.299246    1.796316
      8          1           0        3.003924   -2.003017    1.597046
      9          1           0        3.485315    0.174167   -0.349153
     10          1           0        3.945448   -1.508270   -0.545254
     11          1           0        2.007634   -0.915077   -2.278868
     12          8           0       -0.368155   -1.832515   -1.078480
     13          7           0       -2.140908   -1.410780    1.229571
     14          1           0       -2.618395   -2.091885    1.811280
     15          1           0       -1.689698   -1.843727    0.420334
     16          6           0       -2.988300   -0.268594    0.859097
     17          1           0       -3.995687   -0.566827    0.525800
     18          1           0       -3.124213    0.388357    1.730072
     19          8           0       -2.423636   -0.208576   -1.538457
     20          1           0       -1.655673   -0.852584   -1.521896
     21          6           0       -1.005457    1.127344   -0.053855
     22          6           0       -0.438512    1.239380    1.224658
     23          6           0       -0.261092    1.569677   -1.158835
     24          6           0        0.832479    1.810707    1.395445
     25          1           0       -0.978671    0.867171    2.085098
     26          6           0        1.015533    2.115900   -0.993929
     27          1           0       -0.686236    1.452549   -2.148524
     28          6           0        1.563921    2.252241    0.290042
     29          1           0        1.247855    1.901783    2.394533
     30          1           0        1.573469    2.452797   -1.862037
     31          1           0        2.546553    2.693656    0.423231
     32          6           0       -2.395380    0.550555   -0.298011
     33          1           0       -3.085658    1.385950   -0.474673
 ---------------------------------------------------------------------

 SCF Done:  E(RB3LYP) =  -710.614711803     A.U. after    1 cycles

 The electronic state is 1-A.
 Alpha  occ. eigenvalues --  -19.09653 -19.08458 -14.28371 -10.25316 -10.23835
 Alpha  occ. eigenvalues --  -10.23731 -10.22147 -10.21341 -10.21310 -10.19107
 Alpha  occ. eigenvalues --  -10.19106 -10.19055 -10.18935 -10.18915 -10.18585
 Alpha  occ. eigenvalues --  -10.18070  -0.99031  -0.97513  -0.87511  -0.86126
 Alpha  occ. eigenvalues --   -0.85362  -0.76309  -0.74826  -0.73910  -0.71985
 Alpha  occ. eigenvalues --   -0.69929  -0.62004  -0.60648  -0.59984  -0.56971
 Alpha  occ. eigenvalues --   -0.55080  -0.52220  -0.49928  -0.49236  -0.48692
 Alpha  occ. eigenvalues --   -0.46491  -0.45364  -0.44396  -0.44145  -0.42529
 Alpha  occ. eigenvalues --   -0.42261  -0.40424  -0.40231  -0.39348  -0.38482
 Alpha  occ. eigenvalues --   -0.38388  -0.37980  -0.37624  -0.36739  -0.35061
 Alpha  occ. eigenvalues --   -0.34641  -0.33762  -0.28843  -0.25501  -0.25399
 Alpha  occ. eigenvalues --   -0.23466  -0.22637  -0.21475  -0.20443
 Alpha virt. eigenvalues --   -0.11797  -0.00255  -0.00095   0.06210   0.07700
 Alpha virt. eigenvalues --    0.09923   0.11029   0.12664   0.13080   0.13369
 Alpha virt. eigenvalues --    0.13688   0.14397   0.15118   0.16549   0.16679

 Mulliken charges:
               1
     1  C    0.336716
     2  C   -0.042516
     3  C   -0.333931
     4  C   -0.327758
     5  C   -0.053400
     6  H    0.201189
     7  H    0.188719
     8  H    0.189850
     9  H    0.189839
    10  H    0.183230
    11  H    0.176087
    12  O   -0.656036
    13  N   -0.752070
    14  H    0.274306
    15  H    0.316076
    16  C   -0.096451
    17  H    0.124463
    18  H    0.117305
    19  O   -0.656990
    20  H    0.398845
    21  C    0.068009
    22  C   -0.135849
    23  C   -0.144173
    24  C   -0.153566
    25  H    0.150272
    26  C   -0.143349
    27  H    0.150863
    28  C   -0.133522
    29  H    0.130182
    30  H    0.131395
    31  H    0.128552
    32  C    0.022511
    33  H    0.151203
 Sum of Mulliken charges =   0.00000

 Dipole moment (field-independent basis, Debye):
    X=              7.1280    Y=              0.5739    Z=              3.7355  Tot=              8.0679
 Quadrupole moment (field-independent basis, Debye-Ang):
   XX=            -84.1096   YY=            -96.9017   ZZ=            -94.3212
   XY=             -3.6624   XZ=             -9.0001   YZ=             -6.2127

  Exact polarizability: 199.887  13.586 129.330  -3.972  -6.687 166.712
 Approx polarizability: 271.763  37.540 167.245 -18.642 -14.783 301.532

                      1                      2                      3
                      A                      A                      A
 Frequencies --     51.1286                67.6449                79.1058
 Red. masses --      4.4038                 3.9616                 4.6338
 Frc consts  --      0.0068                 0.0107                 0.0171
 IR Inten    --      4.2867                 1.8409                 0.6163

                      4                      5                      6
                      A                      A                      A
 Frequencies --     98.1611               124.1270               136.9127
 Red. masses --      4.1113                 4.7694                 5.0760
 Frc consts  --      0.0233                 0.0433                 0.0561
 IR Inten    --      2.3978                 6.8804                12.3346

                      7                      8                      9
                      A                      A                      A
 Frequencies --    157.6087               172.5960               199.9226
 Red. masses --      3.8052                 4.1961                 1.9573
 Frc consts  --      0.0557                 0.0736                 0.0461
 IR Inten    --     12.3589                 0.2075                 1.7984

                     10                     11                     12
                      A                      A                      A
 Frequencies --    209.9799               229.3618               265.7050
 Red. masses --      2.4848                 3.1474                 4.6624
 Frc consts  --      0.0645                 0.0976                 0.1939
 IR Inten    --      1.7495                12.6588                26.9677

                     13                     14                     15
                      A                      A                      A
 Frequencies --    305.6755               350.8652               408.4163
 Red. masses --      4.6757                 3.7118                 1.2370
 Frc consts  --      0.2574                 0.2692                 0.1216
 IR Inten    --     10.5341                 2.8507               110.4211

                     16                     17                     18
                      A                      A                      A
 Frequencies --    418.9415               425.9854               448.5241
 Red. masses --      2.7187                 3.5128                 4.1002
 Frc consts  --      0.2811                 0.3756                 0.4860
 IR Inten    --      4.3913                 0.2435                 4.4563

                     19                     20                     21
                      A                      A                      A
 Frequencies --    494.4808               520.2332               554.7076
 Red. masses --      3.4937                 2.1993                 3.6525
 Frc consts  --      0.5033                 0.3507                 0.6622
 IR Inten    --      2.8645                 3.4112                 3.7907

                     22                     23                     24
                      A                      A                      A
 Frequencies --    650.8834               667.9831               693.3676
 Red. masses --      6.4277                 7.6169                 3.4402
 Frc consts  --      1.6044                 2.0024                 0.9745
 IR Inten    --      0.1319                19.8500                23.2606

                     25                     26                     27
                      A                      A                      A
 Frequencies --    700.8161               726.5694               758.0912
 Red. masses --      1.4587                 1.9013                 2.2045
 Frc consts  --      0.4221                 0.5914                 0.7465
 IR Inten    --     37.9770                49.1276                60.3813

                     28                     29                     30
                      A                      A                      A
 Frequencies --    788.4934               811.8383               831.4998
 Red. masses --      5.0067                 1.3127                 1.7820
 Frc consts  --      1.8340                 0.5097                 0.7259
 IR Inten    --      3.7286                47.8592                66.3589

                     31                     32                     33
                      A                      A                      A
 Frequencies --    864.7308               874.2255               888.7613
 Red. masses --      1.1720                 1.6993                 1.2577
 Frc consts  --      0.5163                 0.7652                 0.5853
 IR Inten    --      5.3987               148.7042                23.4246

                     34                     35                     36
                      A                      A                      A
 Frequencies --    909.6989               922.4959               929.7724
 Red. masses --      1.9988                 1.8598                 2.0177
 Frc consts  --      0.9746                 0.9325                 1.0277
 IR Inten    --    187.1378                36.1320                 3.4209

                     37                     38                     39
                      A                      A                      A
 Frequencies --    951.9386               990.4679               997.5586
 Red. masses --      1.4900                 2.7422                 2.7833
 Frc consts  --      0.7955                 1.5850                 1.6319
 IR Inten    --     30.2051                11.2246                32.9754

                     40                     41                     42
                      A                      A                      A
 Frequencies --   1004.1380              1007.7391              1021.7273
 Red. masses --      1.7619                 1.4017                 2.1186
 Frc consts  --      1.0467                 0.8387                 1.3031
 IR Inten    --     17.7693                 0.2312                 2.1822

                     43                     44                     45
                      A                      A                      A
 Frequencies --   1027.8588              1039.9712              1067.6757
 Red. masses --      1.3091                 5.8008                 2.5350
 Frc consts  --      0.8149                 3.6964                 1.7026
 IR Inten    --      1.6976                 3.2057                13.5361

                     46                     47                     48
                      A                      A                      A
 Frequencies --   1077.3102              1103.3058              1123.7074
 Red. masses --      2.0666                 1.4699                 1.8150
 Frc consts  --      1.4131                 1.0542                 1.3503
 IR Inten    --     10.5364                 9.2326                 1.7466

                     49                     50                     51
                      A                      A                      A
 Frequencies --   1145.2226              1154.3359              1204.4876
 Red. masses --      2.6005                 1.1559                 1.1351
 Frc consts  --      2.0095                 0.9075                 0.9703
 IR Inten    --     16.0238                 2.0199                 1.4379

                     52                     53                     54
                      A                      A                      A
 Frequencies --   1214.4143              1218.1438              1236.1145
 Red. masses --      1.2248                 1.1034                 1.1417
 Frc consts  --      1.0642                 0.9647                 1.0278
 IR Inten    --      3.7112                 0.5657                 2.3088

                     55                     56                     57
                      A                      A                      A
 Frequencies --   1250.0688              1274.0615              1286.2979
 Red. masses --      2.3455                 2.5669                 1.1373
 Frc consts  --      2.1595                 2.4550                 1.1086
 IR Inten    --      3.7177                35.1424                10.6331

                     58                     59                     60
                      A                      A                      A
 Frequencies --   1291.3480              1329.2973              1351.5915
 Red. masses --      1.7756                 1.4020                 1.8314
 Frc consts  --      1.7445                 1.4596                 1.9711
 IR Inten    --     16.2916                59.4893                52.3216

                     61                     62                     63
                      A                      A                      A
 Frequencies --   1357.0438              1373.2710              1377.4466
 Red. masses --      1.9362                 2.9551                 3.3890
 Frc consts  --      2.1008                 3.2835                 3.7885
 IR Inten    --    128.4736                 6.3581                37.3483

                     64                     65                     66
                      A                      A                      A
 Frequencies --   1386.8202              1403.4917              1455.2662
 Red. masses --      1.7798                 1.4363                 1.3466
 Frc consts  --      2.0168                 1.6669                 1.6803
 IR Inten    --      3.2766                15.0563                12.6625

                     67                     68                     69
                      A                      A                      A
 Frequencies --   1478.3437              1487.6374              1490.4265
 Red. masses --      1.1138                 1.1189                 1.1279
 Frc consts  --      1.4342                 1.4589                 1.4762
 IR Inten    --     14.7118                13.4675               202.3756

                     70                     71                     72
                      A                      A                      A
 Frequencies --   1503.8525              1554.0740              1562.5823
 Red. masses --      2.0511                 2.0053                 1.1133
 Frc consts  --      2.7330                 2.8535                 1.6016
 IR Inten    --     15.5599                10.6357                10.9661

                     73                     74                     75
                      A                      A                      A
 Frequencies --   1606.9415              1635.0803              1657.0820
 Red. masses --      4.4340                 5.3937                 5.4273
 Frc consts  --      6.7459                 8.4960                 8.7805
 IR Inten    --    347.0667                 8.8862                11.1402

                     76                     77                     78
                      A                      A                      A
 Frequencies --   1733.7502              2984.0951              3022.7231
 Red. masses --      1.0890                 1.0664                 1.0699
 Frc consts  --      1.9286                 5.5950                 5.7597
 IR Inten    --     45.6309               114.3405                 6.7954

                     79                     80                     81
                      A                      A                      A
 Frequencies --   3028.5455              3031.9862              3039.8388
 Red. masses --      1.0928                 1.0653                 1.0830
 Frc consts  --      5.9057                 5.7700                 5.8963
 IR Inten    --     54.2876                15.7171               137.6027

                     82                     83                     84
                      A                      A                      A
 Frequencies --   3068.0439              3087.7800              3186.3156
 Red. masses --      1.0919                 1.0872                 1.0853
 Frc consts  --      6.0555                 6.1071                 6.4922
 IR Inten    --      6.6095                 8.8299                 3.2912

                     85                     86                     87
                      A                      A                      A
 Frequencies --   3193.9358              3197.8622              3213.8391
 Red. masses --      1.0694                 1.0898                 1.0957
 Frc consts  --      6.4276                 6.5662                 6.6676
 IR Inten    --    595.7631                22.3376                40.3380

                     88                     89                     90
                      A                      A                      A
 Frequencies --   3234.9892              3235.9109              3245.9881
 Red. masses --      1.0932                 1.0944                 1.0933
 Frc consts  --      6.7406                 6.7521                 6.7871
 IR Inten    --     11.7203                14.3614                 2.4821

                     91                     92                     93
                      A                      A                      A
 Frequencies --   3247.7669              3414.2903              3588.6033
 Red. masses --      1.0927                 1.0557                 1.0889
 Frc consts  --      6.7906                 7.2510                 8.2618
 IR Inten    --      5.9484               194.7635                16.2388

 - Thermochemistry -
 -------------------
 Temperature   298.150 Kelvin.  Pressure   1.00000 Atm.
 Atom     1 has atomic number  6 and mass  12.00000

 Molecular mass:   219.12593 amu.
 Principal axes and moments of inertia in atomic units:
                           1         2         3
     Eigenvalues --  2423.927023615.796194290.57853
           X            0.99988   0.00972  -0.01197
           Y           -0.01017   0.99923  -0.03799
           Z            0.01160   0.03811   0.99921
 This molecule is an asymmetric top.
 Rotational symmetry number  1.
 Warning -- assumption of classical behavior for rotation
           may cause significant error
 Rotational temperatures (Kelvin)      0.03573     0.02395     0.02019
 Rotational constants (GHZ):           0.74455     0.49913     0.42063
 Zero-point vibrational energy     736862.1 (Joules/Mol)
                                  176.11426 (Kcal/Mol)
 Warning -- explicit consideration of  21 degrees of freedom as
           vibrations may cause significant error
 Vibrational temperatures:     73.56    97.33   113.82   141.23   178.59
          (Kelvin)            196.99   226.76   248.33   287.64   302.11
                              330.00   382.29   439.80   504.82   587.62
                              602.76   612.90   645.33   711.45   748.50
                              798.10   936.48   961.08   997.60  1008.32
                             1045.37  1090.72  1134.47  1168.05  1196.34
                             1244.15  1257.82  1278.73  1308.85  1327.27
                             1337.74  1369.63  1425.06  1435.26  1444.73
                             1449.91  1470.04  1478.86  1496.29  1536.15
                             1550.01  1587.41  1616.76  1647.72  1660.83
                             1732.99  1747.27  1752.64  1778.49  1798.57
                             1833.09  1850.70  1857.96  1912.56  1944.64
                             1952.48  1975.83  1981.84  1995.32  2019.31
                             2093.80  2127.01  2140.38  2144.39  2163.71
                             2235.97  2248.21  2312.03  2352.52  2384.17
                             2494.48  4293.45  4349.02  4357.40  4362.35
                             4373.65  4414.23  4442.63  4584.40  4595.36
                             4601.01  4624.00  4654.43  4655.75  4670.25
                             4672.81  4912.40  5163.20

 Zero-point correction=                           0.280656 (Hartree/Particle)
 Thermal correction to Energy=                    0.295737
 Thermal correction to Enthalpy=                  0.296681
 Thermal correction to Gibbs Free Energy=         0.238815
 Sum of electronic and zero-point Energies=           -710.334056
 Sum of electronic and thermal Energies=              -710.318975
 Sum of electronic and thermal Enthalpies=            -710.318030
 Sum of electronic and thermal Free Energies=         -710.375897

                     E (Thermal)             CV                S
                      KCal/Mol        Cal/Mol-Kelvin    Cal/Mol-Kelvin
 Total                  185.578             58.581            121.790
 Electronic               0.000              0.000              0.000
 Translational            0.889              2.981             42.056
 Rotational               0.889              2.981             31.997
 Vibrational            183.800             52.619             47.736
 Vibration     1          0.595              1.977              4.773
 Vibration     2          0.598              1.970              4.221
 Vibration     3          0.600              1.963              3.913
 Vibration     4          0.604              1.950              3.491
 Vibration     5          0.610              1.929              3.035
 Vibration     6          0.614              1.916              2.847
 Vibration     7          0.621              1.894              2.578
 Vibration     8          0.626              1.876              2.407
 Vibration     9          0.638              1.840              2.134
 Vibration    10          0.642              1.826              2.044
 Vibration    11          0.652              1.796              1.884
 Vibration    12          0.672              1.736              1.624
 Vibration    13          0.696              1.663              1.386
 Vibration    14          0.728              1.573              1.162
 Vibration    15          0.773              1.452              0.932
 Vibration    16          0.782              1.429              0.896
 Vibration    17          0.788              1.414              0.872
 Vibration    18          0.808              1.364              0.800
 Vibration    19          0.850              1.262              0.672
 Vibration    20          0.875              1.205              0.609
 Vibration    21          0.910              1.129              0.535

                           ! Non-Optimized Parameters !

 1\1\GINC-HOLY7C07106\Freq\RB3LYP\6-31G\C13H17N1O2\ROOT\07-Dec-2017\0\\
 #P Geom=AllCheck Guess=TCheck SCRF=Check GenChk RB3LYP/6-31G Freq\\Com
 plex\\0,1\C,-8.6101894537,-3.3312608043,0.0614551982\C,-8.9881743114,-
 3.0630442895,1.4162065399\C,-10.2018101121,-3.798523824,1.8392848797\C
 ,-10.5105747557,-4.7341434878,0.644864105\C,-9.4674684775,-4.390366978
 5,-0.3521442198\H,-8.4263698822,-2.3757267359,2.0397520438\H,-10.03719
 4289,-4.358430289,2.7675105736\H,-11.032407163,-3.1061007775,2.0493313
 52\H,-10.4493198814,-5.7891017513,0.9443087679\H,-11.5247162337,-4.592

 Normal termination of Gaussian 16 at Thu Dec  7 04:13:58 2017.
