 Gaussian 16, Revision A.03,
 Gaussian 16:  ES64L-G16RevA.03 25-Dec-2016

 ------------------------
 #p pddg opt freq=noraman
 ------------------------

 --------
 diMe cat
 --------
 Symbolic Z-matrix:
 Charge =  0 Multiplicity = 1

 SCF Done:  E(RPDDG) =  0.224901397070E-01 A.U. after   14 cycles
 SCF Done:  E(RPDDG) = -0.227782659087E-01 A.U. after   13 cycles
 SCF Done:  E(RPDDG) = -0.302328351237E-01 A.U. after   14 cycles
 SCF Done:  E(RPDDG) = -0.331801923867E-01 A.U. after   14 cycles
 SCF Done:  E(RPDDG) = -0.338498609002E-01 A.U. after   13 cycles
 SCF Done:  E(RPDDG) = -0.340419286981E-01 A.U. after   13 cycles
 SCF Done:  E(RPDDG) = -0.335961145753E-01 A.U. after   13 cycles
 SCF Done:  E(RPDDG) = -0.347485747255E-01 A.U. after   13 cycles
 SCF Done:  E(RPDDG) = -0.352798912243E-01 A.U. after   13 cycles
 SCF Done:  E(RPDDG) = -0.357338904710E-01 A.U. after   14 cycles
 SCF Done:  E(RPDDG) = -0.450147441315E-01 A.U. after   12 cycles
 SCF Done:  E(RPDDG) = -0.450617372813E-01 A.U. after   12 cycles
 SCF Done:  E(RPDDG) = -0.450953560937E-01 A.U. after   12 cycles
 SCF Done:  E(RPDDG) = -0.451037713607E-01 A.U. after   10 cycles
 SCF Done:  E(RPDDG) = -0.451142347907E-01 A.U. after   11 cycles
 SCF Done:  E(RPDDG) = -0.451163965994E-01 A.U. after   10 cycles
 SCF Done:  E(RPDDG) = -0.451180853719E-01 A.U. after   11 cycles
 SCF Done:  E(RPDDG) = -0.451195431551E-01 A.U. after   11 cycles
 SCF Done:  E(RPDDG) = -0.451198310145E-01 A.U. after   10 cycles
 Optimization completed.
    -- Stationary point found.
 Normal termination of Gaussian 16 at Wed Dec  6 21:21:59 2017.

 --------------------------------------------------------------
 #P Geom=AllCheck Guess=TCheck SCRF=Check GenChk RPDDG/ZDO Freq
 --------------------------------------------------------------

 Structure from the checkpoint file:  "/scratch/dhuang9_cat1_dime_isolated/Gau-111388.chk"
 --------
 diMe cat
 --------
 Charge =  0 Multiplicity = 1

                         Standard orientation:
 ---------------------------------------------------------------------
 Center     Atomic      Atomic             Coordinates (Angstroms)
 Number     Number       Type             X           Y           Z
 ---------------------------------------------------------------------
      1          7           0       -1.849097    0.382075   -0.910709
      2          1           0       -1.058892    0.143876   -1.464037
      3          6           0       -1.777538   -0.247478    0.429973
      4          1           0       -2.732289    0.003779    0.980463
      5          6           0       -0.572906    0.310381    1.242848
      6          1           0       -0.504951   -0.287713    2.208444
      7          8           0       -0.882778    1.647763    1.556966
      8          1           0       -0.086429    2.011196    1.929325
      9          6           0        0.734910    0.150075    0.497095
     10          6           0        1.256531    1.174545   -0.290896
     11          6           0        1.431963   -1.053017    0.626491
     12          6           0        2.476295    0.995832   -0.938821
     13          1           0        0.705022    2.122676   -0.412470
     14          6           0        2.648323   -1.226414   -0.024112
     15          1           0        1.001977   -1.869050    1.233899
     16          6           0        3.173777   -0.200190   -0.804911
     17          1           0        2.886763    1.805342   -1.559777
     18          1           0        3.195396   -2.174379    0.080107
     19          1           0        4.137773   -0.336248   -1.315794
     20          6           0       -3.094749    0.077125   -1.638192
     21          1           0       -3.970741    0.384118   -1.048561
     22          1           0       -3.115667    0.647845   -2.575431
     23          1           0       -3.230482   -0.987428   -1.891123
     24          6           0       -1.663349   -1.774264    0.355624
     25          1           0       -1.495310   -2.217764    1.345830
     26          1           0       -2.576769   -2.232410   -0.045032
     27          1           0       -0.829044   -2.110042   -0.277207
 ---------------------------------------------------------------------

 SCF Done:  E(RPDDG) = -0.451198310122E-01 A.U. after    2 cycles

 The electronic state is 1-A.
 Alpha  occ. eigenvalues --   -1.54583  -1.39967  -1.31858  -1.15670  -1.11252
 Alpha  occ. eigenvalues --   -1.08376  -0.95070  -0.86612  -0.80704  -0.79203
 Alpha  occ. eigenvalues --   -0.73506  -0.67686  -0.63833  -0.61809  -0.60637
 Alpha  occ. eigenvalues --   -0.58878  -0.56134  -0.55273  -0.54389  -0.52592
 Alpha  occ. eigenvalues --   -0.51696  -0.51018  -0.49029  -0.48730  -0.47706
 Alpha  occ. eigenvalues --   -0.47335  -0.45431  -0.45015  -0.42903  -0.40707
 Alpha  occ. eigenvalues --   -0.36166  -0.35526  -0.32763
 Alpha virt. eigenvalues --    0.00820   0.01140   0.09124   0.09857   0.10464
 Alpha virt. eigenvalues --    0.11023   0.11118   0.11880   0.12703   0.13906
 Alpha virt. eigenvalues --    0.14213   0.14669   0.14998   0.15347   0.15807

 Mulliken charges:
               1
     1  N   -0.062623
     2  H    0.085802
     3  C   -0.101230
     4  H    0.126294
     5  C    0.080072
     6  H    0.093494
     7  O   -0.298392
     8  H    0.200845
     9  C   -0.130625
    10  C   -0.137128
    11  C   -0.152951
    12  C   -0.148508
    13  H    0.171536
    14  C   -0.148559
    15  H    0.155943
    16  C   -0.150539
    17  H    0.151428
    18  H    0.150317
    19  H    0.150701
    20  C   -0.270662
    21  H    0.096191
    22  H    0.095908
    23  H    0.071496
    24  C   -0.324507
    25  H    0.095680
    26  H    0.097856
    27  H    0.102161
 Sum of Mulliken charges =   0.00000

 Dipole moment (field-independent basis, Debye):
    X=              1.0733    Y=             -1.9945    Z=             -0.0620  Tot=              2.2658
 N-N= 4.095902441996D+02 E-N=-6.671316779443D+02  KE=-1.064979457250D+02
  Exact polarizability: 102.089  -7.832  87.504 -18.502 -13.917  66.134
 Approx polarizability:  74.543  -8.309  74.893 -18.013 -14.063  50.986
 Leave Link  601 at Wed Dec  6 21:22:00 2017, MaxMem=   402653184 cpu:               0.1 elap:               0.0
 (Enter /n/sw/g16_nehalem/g16/l701.exe)
 ... and contract with generalized density number  0.
 Compute integral second derivatives.
 Leave Link  701 at Wed Dec  6 21:22:00 2017, MaxMem=   402653184 cpu:               0.3 elap:               0.1
 (Enter /n/sw/g16_nehalem/g16/l702.exe)
 L702 exits ... SP integral derivatives will be done elsewhere.

                      1                      2                      3
                      A                      A                      A
 Frequencies --     53.8614                71.3731                85.3177
 Red. masses --      3.1263                 2.7583                 2.9395
 Frc consts  --      0.0053                 0.0083                 0.0126
 IR Inten    --      0.5497                 1.2727                 2.2334

                      4                      5                      6
                      A                      A                      A
 Frequencies --    110.8656               202.6905               231.7705
 Red. masses --      2.6095                 1.5484                 4.1124
 Frc consts  --      0.0189                 0.0375                 0.1302
 IR Inten    --      1.6543                 2.5727                 2.3609

                      7                      8                      9
                      A                      A                      A
 Frequencies --    260.6244               285.2393               319.6054
 Red. masses --      2.2238                 2.9329                 1.6659
 Frc consts  --      0.0890                 0.1406                 0.1003
 IR Inten    --     11.3359                20.3123                 6.9796

                     10                     11                     12
                      A                      A                      A
 Frequencies --    351.3481               396.1406               402.5309
 Red. masses --      1.8234                 2.2907                 2.1198
 Frc consts  --      0.1326                 0.2118                 0.2024
 IR Inten    --     32.8261                10.6609                 1.1826

                     13                     14                     15
                      A                      A                      A
 Frequencies --    415.5520               459.6585               484.4680
 Red. masses --      2.0068                 3.0238                 2.8355
 Frc consts  --      0.2042                 0.3764                 0.3921
 IR Inten    --     19.4336                 2.0320                10.1582

                     16                     17                     18
                      A                      A                      A
 Frequencies --    569.7577               600.7143               642.7959
 Red. masses --      3.8295                 2.9003                 6.0860
 Frc consts  --      0.7324                 0.6166                 1.4816
 IR Inten    --      0.4845                 3.7396                 0.2419

                     19                     20                     21
                      A                      A                      A
 Frequencies --    669.2124               718.9852               785.3747
 Red. masses --      3.0241                 2.0952                 1.4838
 Frc consts  --      0.7979                 0.6382                 0.5392
 IR Inten    --     11.4065                69.1204                52.9067

                     22                     23                     24
                      A                      A                      A
 Frequencies --    836.9934               853.9335               864.1546
 Red. masses --      2.0264                 1.5595                 1.2612
 Frc consts  --      0.8364                 0.6700                 0.5549
 IR Inten    --     29.7841                23.6433                 0.7853

                     25                     26                     27
                      A                      A                      A
 Frequencies --    914.4226               940.5160               971.1760
 Red. masses --      1.8587                 1.6171                 1.4383
 Frc consts  --      0.9157                 0.8428                 0.7993
 IR Inten    --      2.9379                14.8737                 9.7767

                     28                     29                     30
                      A                      A                      A
 Frequencies --    978.7217               990.2480               999.6106
 Red. masses --      1.4888                 1.2689                 1.8072
 Frc consts  --      0.8402                 0.7331                 1.0639
 IR Inten    --      2.2893                12.7966                 1.5343

                     31                     32                     33
                      A                      A                      A
 Frequencies --   1034.4389              1041.9906              1083.8092
 Red. masses --      1.6501                 1.7136                 1.4127
 Frc consts  --      1.0403                 1.0962                 0.9777
 IR Inten    --      1.0566                 1.1925                 3.3327

                     34                     35                     36
                      A                      A                      A
 Frequencies --   1085.8182              1092.4351              1098.3596
 Red. masses --      1.2545                 1.3961                 1.5591
 Frc consts  --      0.8714                 0.9816                 1.1082
 IR Inten    --      4.0411                 6.6499                 0.9726

                     37                     38                     39
                      A                      A                      A
 Frequencies --   1109.8345              1116.7044              1137.1334
 Red. masses --      1.1942                 1.6540                 1.5720
 Frc consts  --      0.8667                 1.2152                 1.1976
 IR Inten    --      0.3305                 6.7938                 7.7800

                     40                     41                     42
                      A                      A                      A
 Frequencies --   1153.5179              1203.5914              1206.6573
 Red. masses --      1.3485                 1.1240                 1.5601
 Frc consts  --      1.0572                 0.9593                 1.3383
 IR Inten    --      9.7572                 2.0384                 6.7388

                     43                     44                     45
                      A                      A                      A
 Frequencies --   1252.5060              1263.6695              1267.7870
 Red. masses --      1.1630                 1.8104                 1.2721
 Frc consts  --      1.0750                 1.7033                 1.2047
 IR Inten    --      1.1614                 4.4248                 2.4602

                     46                     47                     48
                      A                      A                      A
 Frequencies --   1286.0261              1300.3216              1309.6372
 Red. masses --      1.1064                 1.1271                 2.1821
 Frc consts  --      1.0781                 1.1229                 2.2051
 IR Inten    --      2.5194                 2.1199                13.6711

                     49                     50                     51
                      A                      A                      A
 Frequencies --   1326.4651              1333.6335              1345.9802
 Red. masses --      1.7725                 1.9485                 1.5173
 Frc consts  --      1.8375                 2.0418                 1.6195
 IR Inten    --      3.3028                 6.3617                 7.1945

                     52                     53                     54
                      A                      A                      A
 Frequencies --   1357.0481              1381.4060              1409.5324
 Red. masses --      1.3197                 2.0360                 1.2895
 Frc consts  --      1.4319                 2.2892                 1.5094
 IR Inten    --      7.2517                 2.7010                12.1102

                     55                     56                     57
                      A                      A                      A
 Frequencies --   1429.6778              1447.2975              1552.0470
 Red. masses --      1.6372                 2.6964                 4.9100
 Frc consts  --      1.9716                 3.3278                 6.9685
 IR Inten    --     12.7273                63.6115                17.6686

                     58                     59                     60
                      A                      A                      A
 Frequencies --   1608.2151              1799.4946              1813.1342
 Red. masses --      5.5073                 9.3091                 9.4180
 Frc consts  --      8.3922                17.7606                18.2419
 IR Inten    --      1.6263                 0.1283                 0.1795

                     61                     62                     63
                      A                      A                      A
 Frequencies --   2611.5806              2721.3900              2936.3232
 Red. masses --      1.0925                 1.0883                 1.0969
 Frc consts  --      4.3900                 4.7488                 5.5721
 IR Inten    --      0.0328                 9.0650                35.2541

                     64                     65                     66
                      A                      A                      A
 Frequencies --   2941.5352              2946.6591              2967.0720
 Red. masses --      1.0686                 1.0978                 1.0945
 Frc consts  --      5.4479                 5.6162                 5.6771
 IR Inten    --      0.0817                42.0865                 6.9132

                     67                     68                     69
                      A                      A                      A
 Frequencies --   2969.9798              2973.6242              2986.0752
 Red. masses --      1.0796                 1.0991                 1.1078
 Frc consts  --      5.6106                 5.7261                 5.8199
 IR Inten    --      4.2383                81.4233                52.3884

                     70                     71                     72
                      A                      A                      A
 Frequencies --   2987.0060              3008.1617              3021.8611
 Red. masses --      1.0936                 1.0932                 1.1005
 Frc consts  --      5.7489                 5.8285                 5.9208
 IR Inten    --      7.2054                 6.1363                 6.8355

                     73                     74                     75
                      A                      A                      A
 Frequencies --   3031.5982              3287.8108              3796.5623
 Red. masses --      1.0410                 1.0785                 1.0669
 Frc consts  --      5.6369                 6.8688                 9.0602
 IR Inten    --      3.4262                 3.9766                12.3785

 - Thermochemistry -
 -------------------
 Temperature   298.150 Kelvin.  Pressure   1.00000 Atm.
 Atom     1 has atomic number  7 and mass  14.00307

 Molecular mass:   165.11536 amu.
 Principal axes and moments of inertia in atomic units:
                           1         2         3
     Eigenvalues --  1231.151712973.244463050.26456
           X            0.99984   0.01653   0.00734
           Y           -0.01431   0.97126  -0.23761
           Z           -0.01106   0.23746   0.97133
 This molecule is an asymmetric top.
 Rotational symmetry number  1.
 Warning -- assumption of classical behavior for rotation
           may cause significant error
 Rotational temperatures (Kelvin)      0.07035     0.02913     0.02840
 Rotational constants (GHZ):           1.46590     0.60699     0.59167
 Zero-point vibrational energy     601141.9 (Joules/Mol)
                                  143.67635 (Kcal/Mol)
 Warning -- explicit consideration of  17 degrees of freedom as
           vibrations may cause significant error
 Vibrational temperatures:     77.49   102.69   122.75   159.51   291.63
          (Kelvin)            333.47   374.98   410.40   459.84   505.51
                              569.96   579.15   597.89   661.35   697.04
                              819.75   864.29   924.84   962.85  1034.46
                             1129.98  1204.25  1228.62  1243.33  1315.65
                             1353.19  1397.31  1408.16  1424.75  1438.22
                             1488.33  1499.19  1559.36  1562.25  1571.77
                             1580.29  1596.80  1606.69  1636.08  1659.65
                             1731.70  1736.11  1802.08  1818.14  1824.06
                             1850.30  1870.87  1884.28  1908.49  1918.80
                             1936.57  1952.49  1987.54  2028.00  2056.99
                             2082.34  2233.05  2313.86  2589.07  2608.70
                             3757.48  3915.47  4224.71  4232.21  4239.59
                             4268.95  4273.14  4278.38  4296.30  4297.64
                             4328.07  4347.78  4361.79  4730.43  5462.41

 Zero-point correction=                           0.228963 (Hartree/Particle)
 Thermal correction to Energy=                    0.240707
 Thermal correction to Enthalpy=                  0.241651
 Thermal correction to Gibbs Free Energy=         0.191220
 Sum of electronic and zero-point Energies=              0.183843
 Sum of electronic and thermal Energies=                 0.195587
 Sum of electronic and thermal Enthalpies=               0.196531
 Sum of electronic and thermal Free Energies=            0.146100

                     E (Thermal)             CV                S
                      KCal/Mol        Cal/Mol-Kelvin    Cal/Mol-Kelvin
 Total                  151.046             46.024            106.140
 Electronic               0.000              0.000              0.000
 Translational            0.889              2.981             41.213
 Rotational               0.889              2.981             30.791
 Vibrational            149.268             40.063             34.136
 Vibration     1          0.596              1.976              4.670
 Vibration     2          0.598              1.968              4.115
 Vibration     3          0.601              1.959              3.765
 Vibration     4          0.607              1.940              3.254
 Vibration     5          0.639              1.836              2.109
 Vibration     6          0.653              1.792              1.865
 Vibration     7          0.669              1.745              1.658
 Vibration     8          0.683              1.701              1.502
 Vibration     9          0.706              1.636              1.312
 Vibration    10          0.728              1.572              1.160
 Vibration    11          0.763              1.478              0.977
 Vibration    12          0.768              1.465              0.953
 Vibration    13          0.779              1.436              0.907
 Vibration    14          0.818              1.340              0.767
 Vibration    15          0.841              1.284              0.698
 Vibration    16          0.926              1.097              0.505
 Vibration    17          0.959              1.030              0.448

 Optimization completed.
    -- Stationary point found.
 Normal termination of Gaussian 16 at Wed Dec  6 21:22:01 2017.
