 Gaussian 16, Revision A.03,
 Gaussian 16:  ES64L-G16RevA.03 25-Dec-2016

 ------------------------
 #p pddg opt freq=noraman
 ------------------------

 --------
 Isolated
 --------
 Symbolic Z-matrix:
 Charge =  0 Multiplicity = 1

 SCF Done:  E(RPDDG) =  0.216086333523     A.U. after   21 cycles
 SCF Done:  E(RPDDG) =  0.148902664905     A.U. after   17 cycles
 SCF Done:  E(RPDDG) =  0.894748553617E-01 A.U. after   15 cycles
 SCF Done:  E(RPDDG) =  0.650490988390E-01 A.U. after   15 cycles
 SCF Done:  E(RPDDG) =  0.537572706405E-01 A.U. after   14 cycles
 SCF Done:  E(RPDDG) =  0.510225908613E-01 A.U. after   14 cycles
 SCF Done:  E(RPDDG) =  0.504959809794E-01 A.U. after   14 cycles
 SCF Done:  E(RPDDG) =  0.502063063742E-01 A.U. after   13 cycles
 SCF Done:  E(RPDDG) =  0.500778286211E-01 A.U. after   13 cycles
 SCF Done:  E(RPDDG) =  0.500585314489E-01 A.U. after   12 cycles
 SCF Done:  E(RPDDG) =  0.500544293666E-01 A.U. after   12 cycles
 SCF Done:  E(RPDDG) =  0.500532983598E-01 A.U. after   11 cycles
 SCF Done:  E(RPDDG) =  0.500524439089E-01 A.U. after   11 cycles
 SCF Done:  E(RPDDG) =  0.500519190799E-01 A.U. after   11 cycles
 Optimization completed.
    -- Stationary point found.
 Normal termination of Gaussian 16 at Sun Nov 26 17:05:11 2017.

 --------------------------------------------------------------
 #P Geom=AllCheck Guess=TCheck SCRF=Check GenChk RPDDG/ZDO Freq
 --------------------------------------------------------------

 Structure from the checkpoint file:  "/scratch/dhuang9_oxyallyl_isolated/Gau-1878.chk"
 --------
 Isolated
 --------
 Charge =  0 Multiplicity = 1

                         Standard orientation:
 ---------------------------------------------------------------------
 Center     Atomic      Atomic             Coordinates (Angstroms)
 Number     Number       Type             X           Y           Z
 ---------------------------------------------------------------------
      1          6           0        0.918944   -0.000025   -0.000013
      2          6           0        0.047153    1.140849   -0.000013
      3          6           0       -1.375026    0.768213   -0.000008
      4          6           0       -1.375132   -0.768122    0.000024
      5          6           0        0.047005   -1.140876   -0.000033
      6          1           0        0.384367    2.184720   -0.000002
      7          1           0       -1.905322    1.194479    0.880041
      8          1           0       -1.905326    1.194441   -0.880066
      9          1           0       -1.905392   -1.194293    0.880147
     10          1           0       -1.905561   -1.194343   -0.879962
     11          1           0        0.384113   -2.184783   -0.000086
     12          8           0        2.159432   -0.000056    0.000023
 ---------------------------------------------------------------------

 SCF Done:  E(RPDDG) =  0.500519190802E-01 A.U. after    2 cycles

 The electronic state is 1-A.
 Alpha  occ. eigenvalues --   -1.50531  -1.27988  -1.05913  -0.99005  -0.77272
 Alpha  occ. eigenvalues --   -0.70332  -0.65154  -0.61640  -0.55146  -0.53131
 Alpha  occ. eigenvalues --   -0.51158  -0.50579  -0.49396  -0.48664  -0.35858
 Alpha  occ. eigenvalues --   -0.30086
 Alpha virt. eigenvalues --   -0.08064   0.07847   0.08113   0.08330   0.11186
 Alpha virt. eigenvalues --    0.11266   0.12079   0.12609   0.13337   0.14999
 Alpha virt. eigenvalues --    0.16246   0.17498   0.19628   0.29731

 Mulliken charges:
               1
     1  C    0.218672
     2  C   -0.130655
     3  C   -0.186739
     4  C   -0.186751
     5  C   -0.130610
     6  H    0.165252
     7  H    0.133985
     8  H    0.133988
     9  H    0.133995
    10  H    0.133994
    11  H    0.165242
    12  O   -0.450372
 Sum of Mulliken charges =   0.00000

 Dipole moment (field-independent basis, Debye):
    X=             -6.1977    Y=             -0.0001    Z=              0.0000  Tot=              6.1977
 N-N= 1.334213354879D+02 E-N=-1.876625139286D+02  KE=-5.644300292188D+01
  Exact polarizability:  63.972   0.005  95.069   0.000   0.000  20.800
 Approx polarizability:  50.404   0.005  82.367   0.000   0.000  14.674
 Leave Link  601 at Sun Nov 26 17:05:15 2017, MaxMem=   134217728 cpu:               0.1 elap:               0.1
 (Enter /n/sw/g16_nehalem/g16/l701.exe)
 ... and contract with generalized density number  0.
 Compute integral second derivatives.
 Leave Link  701 at Sun Nov 26 17:05:15 2017, MaxMem=   134217728 cpu:               0.2 elap:               0.2
 (Enter /n/sw/g16_nehalem/g16/l702.exe)
 L702 exits ... SP integral derivatives will be done elsewhere.

                      1                      2                      3
                      A                      A                      A
 Frequencies --    158.5058               169.1324               460.4266
 Red. masses --      1.5457                 2.5812                 5.5433
 Frc consts  --      0.0229                 0.0435                 0.6924
 IR Inten    --      0.0000                 7.1591                 0.0150

                      4                      5                      6
                      A                      A                      A
 Frequencies --    493.9298               648.9630               695.3764
 Red. masses --      2.3473                 7.1011                 1.3423
 Frc consts  --      0.3374                 1.7620                 0.3824
 IR Inten    --     12.0083                 0.1615                81.1518

                      7                      8                      9
                      A                      A                      A
 Frequencies --    751.5626               761.5429               860.6236
 Red. masses --      4.0968                 1.1379                 1.9764
 Frc consts  --      1.3634                 0.3888                 0.8625
 IR Inten    --      0.0283                 0.0000                56.3455

                     10                     11                     12
                      A                      A                      A
 Frequencies --    954.9408               981.4121              1007.3219
 Red. masses --      1.6833                 1.1924                 1.3008
 Frc consts  --      0.9044                 0.6767                 0.7777
 IR Inten    --      0.0000                18.6166                 0.8285

                     13                     14                     15
                      A                      A                      A
 Frequencies --   1026.0872              1039.2635              1044.9267
 Red. masses --      1.0318                 1.3111                 1.2486
 Frc consts  --      0.6401                 0.8344                 0.8032
 IR Inten    --      3.8875                 0.0000                 7.7463

                     16                     17                     18
                      A                      A                      A
 Frequencies --   1126.3131              1171.0715              1249.6146
 Red. masses --      2.5083                 1.3052                 1.1498
 Frc consts  --      1.8748                 1.0546                 1.0578
 IR Inten    --      0.1073                 1.5092                34.9139

                     19                     20                     21
                      A                      A                      A
 Frequencies --   1277.4532              1359.7379              1406.1929
 Red. masses --      1.5249                 2.2553                 4.9510
 Frc consts  --      1.4662                 2.4568                 5.7681
 IR Inten    --     23.8392                 4.6033               130.0519

                     22                     23                     24
                      A                      A                      A
 Frequencies --   1435.8474              1488.2242              1922.8224
 Red. masses --      6.8246                 8.3600                11.9544
 Frc consts  --      8.2898                10.9093                26.0410
 IR Inten    --     21.7975               239.7717               853.9941

                     25                     26                     27
                      A                      A                      A
 Frequencies --   2864.7501              2879.6727              2897.0719
 Red. masses --      1.1030                 1.0994                 1.0627
 Frc consts  --      5.3332                 5.3714                 5.2552
 IR Inten    --      0.0001                42.5015                51.8274

                     28                     29                     30
                      A                      A                      A
 Frequencies --   2902.9582              3024.2107              3029.4391
 Red. masses --      1.0609                 1.0909                 1.0953
 Frc consts  --      5.2673                 5.8782                 5.9225
 IR Inten    --     56.1311               181.3482                 0.9700

 - Thermochemistry -
 -------------------
 Temperature   298.150 Kelvin.  Pressure   1.00000 Atm.
 Atom     1 has atomic number  6 and mass  12.00000

 Molecular mass:    82.04186 amu.
 Principal axes and moments of inertia in atomic units:
                           1         2         3
     Eigenvalues --   228.16847 527.25875 733.12791
           X            1.00000   0.00000   0.00000
           Y            0.00000   1.00000   0.00000
           Z            0.00000   0.00000   1.00000
 This molecule is an asymmetric top.
 Rotational symmetry number  1.
 Rotational temperatures (Kelvin)      0.37961     0.16427     0.11814
 Rotational constants (GHZ):           7.90969     3.42288     2.46170
 Zero-point vibrational energy     245769.2 (Joules/Mol)
                                   58.74024 (Kcal/Mol)
 Warning -- explicit consideration of   4 degrees of freedom as
           vibrations may cause significant error
 Vibrational temperatures:    228.05   243.34   662.45   710.65   933.71
          (Kelvin)           1000.49  1081.33  1095.69  1238.25  1373.95
                             1412.03  1449.31  1476.31  1495.27  1503.42
                             1620.51  1684.91  1797.92  1837.97  1956.36
                             2023.20  2065.86  2141.22  2766.51  4121.74
                             4143.21  4168.24  4176.71  4351.16  4358.69

 Zero-point correction=                           0.093609 (Hartree/Particle)
 Thermal correction to Energy=                    0.098971
 Thermal correction to Enthalpy=                  0.099915
 Thermal correction to Gibbs Free Energy=         0.064908
 Sum of electronic and zero-point Energies=              0.143660
 Sum of electronic and thermal Energies=                 0.149023
 Sum of electronic and thermal Enthalpies=               0.149967
 Sum of electronic and thermal Free Energies=            0.114959

                     E (Thermal)             CV                S
                      KCal/Mol        Cal/Mol-Kelvin    Cal/Mol-Kelvin
 Total                   62.105             19.554             73.680
 Electronic               0.000              0.000              0.000
 Translational            0.889              2.981             39.128
 Rotational               0.889              2.981             25.981
 Vibrational             60.328             13.593              8.571
 Vibration     1          0.621              1.893              2.568
 Vibration     2          0.625              1.880              2.445
 Vibration     3          0.818              1.338              0.765
 Vibration     4          0.850              1.263              0.673

 Optimization completed.
    -- Stationary point found.
 Normal termination of Gaussian 16 at Sun Nov 26 17:05:15 2017.
