 Gaussian 16, Revision A.03,
 Gaussian 16:  ES64L-G16RevA.03 25-Dec-2016

 ------------------------
 #p pddg opt freq=noraman
 ------------------------

 --------
 diMe cat
 --------
 Symbolic Z-matrix:
 Charge =  0 Multiplicity = 1

 SCF Done:  E(RPDDG) =  0.422150075093E-02 A.U. after   14 cycles
 SCF Done:  E(RPDDG) = -0.177625925366E-01 A.U. after   14 cycles
 SCF Done:  E(RPDDG) = -0.241278199870E-01 A.U. after   13 cycles
 SCF Done:  E(RPDDG) = -0.234997305719E-01 A.U. after   14 cycles
 SCF Done:  E(RPDDG) = -0.264176258788E-01 A.U. after   13 cycles
 SCF Done:  E(RPDDG) = -0.265401796412E-01 A.U. after   13 cycles
 SCF Done:  E(RPDDG) = -0.264097339382E-01 A.U. after   14 cycles
 SCF Done:  E(RPDDG) = -0.271630612587E-01 A.U. after   13 cycles
 SCF Done:  E(RPDDG) = -0.277016414458E-01 A.U. after   12 cycles
 SCF Done:  E(RPDDG) = -0.285444463943E-01 A.U. after   14 cycles
 SCF Done:  E(RPDDG) = -0.280807999030E-01 A.U. after   14 cycles
 SCF Done:  E(RPDDG) = -0.281099988062E-01 A.U. after   14 cycles
 SCF Done:  E(RPDDG) = -0.287664153061E-01 A.U. after    9 cycles
 SCF Done:  E(RPDDG) = -0.289499837949E-01 A.U. after   13 cycles
 SCF Done:  E(RPDDG) = -0.289746930401E-01 A.U. after   12 cycles
 SCF Done:  E(RPDDG) = -0.289810959426E-01 A.U. after   10 cycles
 SCF Done:  E(RPDDG) = -0.289832339465E-01 A.U. after   11 cycles
 SCF Done:  E(RPDDG) = -0.289839186985E-01 A.U. after    9 cycles
 SCF Done:  E(RPDDG) = -0.289841061342E-01 A.U. after    9 cycles
 Optimization completed.
    -- Stationary point found.
 Normal termination of Gaussian 16 at Wed Dec  6 23:14:25 2017.

 --------------------------------------------------------------
 #P Geom=AllCheck Guess=TCheck SCRF=Check GenChk RPDDG/ZDO Freq
 --------------------------------------------------------------

 Structure from the checkpoint file:  "/scratch/dhuang9_cat1_nme_isolated/Gau-156085.chk"
 --------
 diMe cat
 --------
 Charge =  0 Multiplicity = 1

                         Standard orientation:
 ---------------------------------------------------------------------
 Center     Atomic      Atomic             Coordinates (Angstroms)
 Number     Number       Type             X           Y           Z
 ---------------------------------------------------------------------
      1          7           0       -2.562484   -0.220661   -0.442455
      2          1           0       -1.928888   -0.366988   -1.192805
      3          6           0       -1.906378    0.428461    0.723902
      4          1           0       -2.664335    1.123946    1.148564
      5          6           0       -0.628075    1.222867    0.389283
      6          1           0       -0.424417    1.887074    1.289847
      7          8           0       -0.910535    1.989902   -0.758758
      8          1           0       -0.123880    2.498281   -0.928199
      9          6           0        0.617074    0.376963    0.198238
     10          6           0        0.603034   -1.008575    0.071208
     11          6           0        1.839415    1.057482    0.166281
     12          6           0        1.798651   -1.705589   -0.094494
     13          1           0       -0.336327   -1.585139    0.103593
     14          6           0        3.028793    0.359999   -0.002292
     15          1           0        1.866542    2.153661    0.283218
     16          6           0        3.010229   -1.026256   -0.134944
     17          1           0        1.780068   -2.800648   -0.195504
     18          1           0        3.984725    0.902935   -0.028817
     19          1           0        3.950651   -1.579960   -0.269015
     20          6           0       -3.201527   -1.502028   -0.086114
     21          1           0       -3.994782   -1.341998    0.657550
     22          1           0       -3.675894   -1.941803   -0.973141
     23          1           0       -2.514140   -2.255108    0.336753
     24          1           0       -1.664944   -0.288791    1.548800
 ---------------------------------------------------------------------

 SCF Done:  E(RPDDG) = -0.289841061328E-01 A.U. after    2 cycles

 The electronic state is 1-A.
 Alpha  occ. eigenvalues --   -1.53739  -1.39435  -1.28506  -1.14140  -1.11802
 Alpha  occ. eigenvalues --   -1.03727  -0.87572  -0.81315  -0.80054  -0.75314
 Alpha  occ. eigenvalues --   -0.69865  -0.64335  -0.62011  -0.59765  -0.58313
 Alpha  occ. eigenvalues --   -0.57168  -0.55196  -0.54356  -0.53012  -0.52540
 Alpha  occ. eigenvalues --   -0.49301  -0.48641  -0.47032  -0.46873  -0.45977
 Alpha  occ. eigenvalues --   -0.44765  -0.40943  -0.36693  -0.36075  -0.32780
 Alpha virt. eigenvalues --    0.00401   0.00660   0.08539   0.09468   0.10246
 Alpha virt. eigenvalues --    0.10573   0.10795   0.11390   0.12658   0.13435
 Alpha virt. eigenvalues --    0.13875   0.14132   0.14580   0.15192   0.16199

 Mulliken charges:
               1
     1  N   -0.054840
     2  H    0.091171
     3  C   -0.209369
     4  H    0.112078
     5  C    0.076901
     6  H    0.093149
     7  O   -0.292636
     8  H    0.198944
     9  C   -0.121538
    10  C   -0.140577
    11  C   -0.159606
    12  C   -0.144520
    13  H    0.158238
    14  C   -0.140223
    15  H    0.148512
    16  C   -0.148620
    17  H    0.150799
    18  H    0.151264
    19  H    0.152086
    20  C   -0.278275
    21  H    0.095179
    22  H    0.098725
    23  H    0.067517
    24  H    0.095642
 Sum of Mulliken charges =   0.00000

 Dipole moment (field-independent basis, Debye):
    X=              2.2670    Y=             -0.9647    Z=              1.3557  Tot=              2.8121
 N-N= 3.484910468959D+02 E-N=-5.569888388152D+02  KE=-9.822631577858D+01
  Exact polarizability: 102.735   1.470  91.722  -5.004   4.495  40.508
 Approx polarizability:  77.924   2.027  77.492  -4.059   3.524  29.728
 Leave Link  601 at Wed Dec  6 23:14:33 2017, MaxMem=   402653184 cpu:               1.1 elap:               0.4
 (Enter /n/sw/g16_nehalem/g16/l701.exe)
 ... and contract with generalized density number  0.
 Compute integral second derivatives.
 Leave Link  701 at Wed Dec  6 23:14:33 2017, MaxMem=   402653184 cpu:               0.3 elap:               0.1
 (Enter /n/sw/g16_nehalem/g16/l702.exe)
 L702 exits ... SP integral derivatives will be done elsewhere.

                      1                      2                      3
                      A                      A                      A
 Frequencies --     53.7938               120.9764               133.4258
 Red. masses --      3.6073                 2.6539                 3.7891
 Frc consts  --      0.0062                 0.0229                 0.0397
 IR Inten    --      0.7182                 0.4856                 1.8139

                      4                      5                      6
                      A                      A                      A
 Frequencies --    165.3555               200.2073               243.2705
 Red. masses --      1.3814                 2.1257                 3.5618
 Frc consts  --      0.0223                 0.0502                 0.1242
 IR Inten    --      0.9849                 6.0161                 1.3393

                      7                      8                      9
                      A                      A                      A
 Frequencies --    305.0318               311.7258               352.0428
 Red. masses --      1.8959                 3.4183                 2.5562
 Frc consts  --      0.1039                 0.1957                 0.1867
 IR Inten    --     53.6397                27.3611                 2.1051

                     10                     11                     12
                      A                      A                      A
 Frequencies --    384.1280               396.4485               428.0756
 Red. masses --      1.9709                 3.3046                 2.5100
 Frc consts  --      0.1713                 0.3060                 0.2710
 IR Inten    --     22.2798                10.0964                 8.0747

                     13                     14                     15
                      A                      A                      A
 Frequencies --    507.0624               584.1569               642.9276
 Red. masses --      3.1474                 2.9355                 6.2850
 Frc consts  --      0.4768                 0.5902                 1.5307
 IR Inten    --      2.7736                 5.1546                 0.0889

                     16                     17                     18
                      A                      A                      A
 Frequencies --    662.8401               728.3198               785.1938
 Red. masses --      2.1609                 2.3714                 1.7006
 Frc consts  --      0.5594                 0.7411                 0.6177
 IR Inten    --     40.0252                32.7808                72.8633

                     19                     20                     21
                      A                      A                      A
 Frequencies --    798.2319               850.6038               865.2486
 Red. masses --      1.6481                 1.4990                 1.3657
 Frc consts  --      0.6187                 0.6390                 0.6024
 IR Inten    --      2.7474                16.1921                11.2443

                     22                     23                     24
                      A                      A                      A
 Frequencies --    907.7330               935.7784               954.7849
 Red. masses --      1.5072                 1.6078                 1.5204
 Frc consts  --      0.7317                 0.8295                 0.8166
 IR Inten    --      2.5800                11.4355                 0.3500

                     25                     26                     27
                      A                      A                      A
 Frequencies --    976.7979               998.9425              1029.2960
 Red. masses --      1.4924                 1.9012                 2.3496
 Frc consts  --      0.8390                 1.1178                 1.4666
 IR Inten    --      0.6143                 1.0358                 1.2123

                     28                     29                     30
                      A                      A                      A
 Frequencies --   1038.3484              1046.0171              1062.4283
 Red. masses --      1.5852                 1.3390                 1.2831
 Frc consts  --      1.0070                 0.8632                 0.8533
 IR Inten    --      6.6200                 2.6180                 7.0430

                     31                     32                     33
                      A                      A                      A
 Frequencies --   1076.7167              1091.1674              1105.0753
 Red. masses --      1.2788                 1.1079                 1.7387
 Frc consts  --      0.8735                 0.7772                 1.2510
 IR Inten    --      0.6453                 1.0845                 6.8989

                     34                     35                     36
                      A                      A                      A
 Frequencies --   1120.9869              1132.0784              1152.7288
 Red. masses --      1.1128                 1.7891                 1.7497
 Frc consts  --      0.8239                 1.3509                 1.3699
 IR Inten    --      0.8346                 3.1881                 4.9197

                     37                     38                     39
                      A                      A                      A
 Frequencies --   1192.1011              1234.6134              1270.9079
 Red. masses --      1.1047                 1.6748                 1.0921
 Frc consts  --      0.9249                 1.5041                 1.0393
 IR Inten    --      1.5598                 2.6596                 3.2891

                     40                     41                     42
                      A                      A                      A
 Frequencies --   1272.2114              1282.3013              1302.1138
 Red. masses --      1.2666                 1.2003                 1.2936
 Frc consts  --      1.2078                 1.1629                 1.2922
 IR Inten    --      2.8054                 2.9992                12.6792

                     43                     44                     45
                      A                      A                      A
 Frequencies --   1320.8579              1340.5218              1342.0839
 Red. masses --      2.7091                 2.5047                 1.3611
 Frc consts  --      2.7847                 2.6519                 1.4445
 IR Inten    --      1.4871                 6.8862                 8.2016

                     46                     47                     48
                      A                      A                      A
 Frequencies --   1347.8405              1365.8813              1433.7552
 Red. masses --      1.5524                 2.8652                 1.5301
 Frc consts  --      1.6616                 3.1495                 1.8532
 IR Inten    --      8.5084                16.1283                25.2462

                     49                     50                     51
                      A                      A                      A
 Frequencies --   1467.8589              1549.1469              1610.9283
 Red. masses --      1.8542                 4.8397                 5.0163
 Frc consts  --      2.3538                 6.8432                 7.6698
 IR Inten    --     53.5171                15.3321                 1.4615

                     52                     53                     54
                      A                      A                      A
 Frequencies --   1798.1301              1815.3509              2618.0988
 Red. masses --      9.2234                 9.3598                 1.0928
 Frc consts  --     17.5704                18.1735                 4.4135
 IR Inten    --      0.0340                 0.1210                 0.4099

                     55                     56                     57
                      A                      A                      A
 Frequencies --   2804.3061              2850.6658              2930.6586
 Red. masses --      1.0832                 1.0851                 1.0728
 Frc consts  --      5.0189                 5.1952                 5.4286
 IR Inten    --      1.9297                 8.5689                 0.8108

                     58                     59                     60
                      A                      A                      A
 Frequencies --   2948.5400              2963.4829              2970.0273
 Red. masses --      1.0959                 1.0930                 1.0957
 Frc consts  --      5.6137                 5.6556                 5.6948
 IR Inten    --     24.7541                 4.7450                30.8514

                     61                     62                     63
                      A                      A                      A
 Frequencies --   2976.5677              2978.2540              2987.3339
 Red. masses --      1.0986                 1.0795                 1.1078
 Frc consts  --      5.7347                 5.6416                 5.8249
 IR Inten    --    113.1674                13.1944                33.1210

                     64                     65                     66
                      A                      A                      A
 Frequencies --   2988.8530              3289.9543              3789.6326
 Red. masses --      1.0887                 1.0793                 1.0668
 Frc consts  --      5.7303                 6.8827                 9.0264
 IR Inten    --      7.7036                 7.0675                 9.4520

 - Thermochemistry -
 -------------------
 Temperature   298.150 Kelvin.  Pressure   1.00000 Atm.
 Atom     1 has atomic number  7 and mass  14.00307

 Molecular mass:   151.09971 amu.
 Principal axes and moments of inertia in atomic units:
                           1         2         3
     Eigenvalues --   923.218172510.727123214.87656
           X            0.99959   0.02761  -0.00709
           Y           -0.02751   0.99952   0.01457
           Z            0.00749  -0.01436   0.99987
 This molecule is an asymmetric top.
 Rotational symmetry number  1.
 Warning -- assumption of classical behavior for rotation
           may cause significant error
 Rotational temperatures (Kelvin)      0.09382     0.03450     0.02694
 Rotational constants (GHZ):           1.95484     0.71881     0.56137
 Zero-point vibrational energy     527498.9 (Joules/Mol)
                                  126.07526 (Kcal/Mol)
 Warning -- explicit consideration of  14 degrees of freedom as
           vibrations may cause significant error
 Vibrational temperatures:     77.40   174.06   191.97   237.91   288.05
          (Kelvin)            350.01   438.87   448.50   506.51   552.67
                              570.40   615.91   729.55   840.47   925.03
                              953.68  1047.89  1129.72  1148.48  1223.83
                             1244.90  1306.03  1346.38  1373.72  1405.39
                             1437.26  1480.93  1493.95  1504.99  1528.60
                             1549.16  1569.95  1589.96  1612.85  1628.81
                             1658.52  1715.17  1776.33  1828.55  1830.43
                             1844.95  1873.45  1900.42  1928.71  1930.96
                             1939.24  1965.20  2062.85  2111.92  2228.88
                             2317.77  2587.11  2611.89  3766.86  4034.77
                             4101.47  4216.56  4242.29  4263.79  4273.21
                             4282.62  4285.04  4298.11  4300.29  4733.51
                             5452.44

 Zero-point correction=                           0.200914 (Hartree/Particle)
 Thermal correction to Energy=                    0.211395
 Thermal correction to Enthalpy=                  0.212339
 Thermal correction to Gibbs Free Energy=         0.164999
 Sum of electronic and zero-point Energies=              0.171930
 Sum of electronic and thermal Energies=                 0.182411
 Sum of electronic and thermal Enthalpies=               0.183355
 Sum of electronic and thermal Free Energies=            0.136015

                     E (Thermal)             CV                S
                      KCal/Mol        Cal/Mol-Kelvin    Cal/Mol-Kelvin
 Total                  132.652             41.042             99.636
 Electronic               0.000              0.000              0.000
 Translational            0.889              2.981             40.948
 Rotational               0.889              2.981             30.389
 Vibrational            130.875             35.080             28.299
 Vibration     1          0.596              1.976              4.673
 Vibration     2          0.609              1.932              3.085
 Vibration     3          0.613              1.920              2.896
 Vibration     4          0.624              1.885              2.488
 Vibration     5          0.638              1.840              2.131
 Vibration     6          0.659              1.774              1.779
 Vibration     7          0.696              1.664              1.389
 Vibration     8          0.700              1.651              1.353
 Vibration     9          0.729              1.571              1.157
 Vibration    10          0.753              1.504              1.023
 Vibration    11          0.763              1.478              0.976
 Vibration    12          0.790              1.409              0.865
 Vibration    13          0.862              1.234              0.641
 Vibration    14          0.941              1.066              0.478

                           ! Non-Optimized Parameters !
 Normal termination of Gaussian 16 at Wed Dec  6 23:14:39 2017.
