 Gaussian 16, Revision A.03,
 Gaussian 16:  ES64L-G16RevA.03 25-Dec-2016

 ------------------------
 #p pddg opt freq=noraman
 ------------------------

 --------
 Isolated
 --------
 Symbolic Z-matrix:
 Charge =  0 Multiplicity = 1

 SCF Done:  E(RPDDG) =  0.498253894907E-01 A.U. after   15 cycles
 SCF Done:  E(RPDDG) =  0.322051819292E-01 A.U. after   14 cycles
 SCF Done:  E(RPDDG) =  0.240243932043E-01 A.U. after   14 cycles
 SCF Done:  E(RPDDG) =  0.220611322204E-01 A.U. after   14 cycles
 SCF Done:  E(RPDDG) =  0.225099601579E-01 A.U. after   14 cycles
 SCF Done:  E(RPDDG) =  0.276815598020E-01 A.U. after   14 cycles
 SCF Done:  E(RPDDG) =  0.275351194125E-01 A.U. after   14 cycles
 SCF Done:  E(RPDDG) =  0.211037711338E-01 A.U. after   11 cycles
 SCF Done:  E(RPDDG) =  0.192925651861E-01 A.U. after   14 cycles
 SCF Done:  E(RPDDG) =  0.188891945484E-01 A.U. after   13 cycles
 SCF Done:  E(RPDDG) =  0.154737049438E-01 A.U. after   12 cycles
 SCF Done:  E(RPDDG) =  0.154666797629E-01 A.U. after   13 cycles
 SCF Done:  E(RPDDG) =  0.154560979236E-01 A.U. after   12 cycles
 SCF Done:  E(RPDDG) =  0.154619748446E-01 A.U. after   13 cycles
 SCF Done:  E(RPDDG) =  0.154486115615E-01 A.U. after   13 cycles
 SCF Done:  E(RPDDG) =  0.154475044052E-01 A.U. after   11 cycles
 SCF Done:  E(RPDDG) =  0.154476282972E-01 A.U. after   10 cycles
 SCF Done:  E(RPDDG) =  0.154474724801E-01 A.U. after   10 cycles
 SCF Done:  E(RPDDG) =  0.154474542055E-01 A.U. after    9 cycles
 Optimization completed.
    -- Stationary point found.
 Normal termination of Gaussian 16 at Sun Nov 26 17:05:44 2017.

 --------------------------------------------------------------
 #P Geom=AllCheck Guess=TCheck SCRF=Check GenChk RPDDG/ZDO Freq
 --------------------------------------------------------------

 Structure from the checkpoint file:  "/scratch/dhuang9_cat1_isolated/Gau-7577.chk"
 --------
 Isolated
 --------
 Charge =  0 Multiplicity = 1

                         Standard orientation:
 ---------------------------------------------------------------------
 Center     Atomic      Atomic             Coordinates (Angstroms)
 Number     Number       Type             X           Y           Z
 ---------------------------------------------------------------------
      1          6           0        0.417764    2.081348   -0.990294
      2          6           0        0.387136    1.752507    0.518467
      3          6           0        2.696320    1.832433   -0.169393
      4          6           0        1.879977    2.331667   -1.363490
      5          1           0       -0.026143    1.261803   -1.609004
      6          1           0       -0.213661    2.965489   -1.221479
      7          1           0       -0.273530    2.502258    1.053703
      8          1           0        3.628317    2.415913   -0.011204
      9          1           0        3.009894    0.773817   -0.316658
     10          1           0        2.071609    3.404390   -1.572661
     11          1           0        2.163069    1.805260   -2.296882
     12          7           0        1.793468    1.865134    1.007108
     13          1           0        1.923740    2.685022    1.548624
     14          6           0       -0.164609    0.322010    0.838799
     15          8           0       -0.253648    0.297134    2.250074
     16          1           0       -0.514874   -0.588877    2.487118
     17          6           0       -1.578074    0.074830    0.301920
     18          6           0       -2.071967   -1.233746    0.365562
     19          6           0       -2.415154    1.090794   -0.154007
     20          6           0       -3.366434   -1.522395   -0.048737
     21          1           0       -1.434457   -2.053370    0.739589
     22          6           0       -3.712524    0.797623   -0.570167
     23          1           0       -2.091939    2.142893   -0.194216
     24          6           0       -4.190686   -0.505968   -0.523380
     25          1           0       -3.738798   -2.555884    0.000667
     26          1           0       -4.362505    1.607315   -0.932632
     27          1           0       -5.214397   -0.733000   -0.853602
     28          6           0        0.767955   -0.751336    0.284402
     29          6           0        1.662345   -1.434547    1.109837
     30          6           0        0.728994   -1.056330   -1.078946
     31          6           0        2.482786   -2.426900    0.578614
     32          1           0        1.761251   -1.188573    2.180255
     33          6           0        1.548586   -2.047899   -1.604814
     34          1           0        0.057999   -0.474681   -1.744605
     35          6           0        2.423064   -2.742408   -0.774078
     36          1           0        3.184433   -2.960501    1.235975
     37          1           0        1.504238   -2.281286   -2.678102
     38          1           0        3.067793   -3.531100   -1.187007
 ---------------------------------------------------------------------

 SCF Done:  E(RPDDG) =  0.154474542046E-01 A.U. after    2 cycles

 The electronic state is 1-A.
 Alpha  occ. eigenvalues --   -1.59741  -1.44842  -1.42293  -1.35767  -1.17432
 Alpha  occ. eigenvalues --   -1.12621  -1.10846  -1.06727  -1.04470  -1.03783
 Alpha  occ. eigenvalues --   -0.89485  -0.81443  -0.80853  -0.78667  -0.76828
 Alpha  occ. eigenvalues --   -0.75251  -0.71179  -0.68730  -0.67112  -0.63582
 Alpha  occ. eigenvalues --   -0.61879  -0.60944  -0.59777  -0.58532  -0.57278
 Alpha  occ. eigenvalues --   -0.55825  -0.54962  -0.54191  -0.53880  -0.53422
 Alpha  occ. eigenvalues --   -0.52289  -0.50338  -0.48728  -0.48515  -0.48013
 Alpha  occ. eigenvalues --   -0.47748  -0.46978  -0.46644  -0.45952  -0.45349
 Alpha  occ. eigenvalues --   -0.44619  -0.43408  -0.41402  -0.40401  -0.36120
 Alpha  occ. eigenvalues --   -0.35835  -0.35455  -0.34989  -0.32951
 Alpha virt. eigenvalues --    0.00940   0.01208   0.01465   0.01805   0.08322
 Alpha virt. eigenvalues --    0.09888   0.10152   0.10351   0.10886   0.11181
 Alpha virt. eigenvalues --    0.11399   0.11642   0.11722   0.11947   0.12418

 Mulliken charges:
               1
     1  C   -0.225012
     2  C   -0.100218
     3  C   -0.199904
     4  C   -0.203449
     5  H    0.119120
     6  H    0.096381
     7  H    0.116662
     8  H    0.099177
     9  H    0.117913
    10  H    0.092373
    11  H    0.102027
    12  N   -0.063587
    13  H    0.078886
    14  C    0.214845
    15  O   -0.302840
    16  H    0.205458
    17  C   -0.110855
    18  C   -0.151209
    19  C   -0.142315
    20  C   -0.146602
    21  H    0.160229
    22  C   -0.152546
    23  H    0.158998
    24  C   -0.149110
    25  H    0.151180
    26  H    0.149842
    27  H    0.150989
    28  C   -0.098906
    29  C   -0.135261
    30  C   -0.150649
    31  C   -0.155526
    32  H    0.166758
    33  C   -0.152783
    34  H    0.165187
    35  C   -0.154402
    36  H    0.149807
    37  H    0.149655
    38  H    0.149688
 Sum of Mulliken charges =   0.00000

 Dipole moment (field-independent basis, Debye):
    X=             -0.4326    Y=              0.1242    Z=             -1.7268  Tot=              1.7845
 N-N= 7.817032097281D+02 E-N=-1.338755197629D+03  KE=-1.568587680199D+02
  Exact polarizability: 156.588 -21.550 145.365  19.710   0.277 112.823
 Approx polarizability: 116.732 -20.556 119.743  20.825  -0.141 101.272
 Leave Link  601 at Sun Nov 26 17:05:52 2017, MaxMem=   134217728 cpu:               0.1 elap:               0.1
 (Enter /n/sw/g16_nehalem/g16/l701.exe)
 ... and contract with generalized density number  0.
 Compute integral second derivatives.
 Leave Link  701 at Sun Nov 26 17:05:52 2017, MaxMem=   134217728 cpu:               0.4 elap:               0.4
 (Enter /n/sw/g16_nehalem/g16/l702.exe)
 L702 exits ... SP integral derivatives will be done elsewhere.

                      1                      2                      3
                      A                      A                      A
 Frequencies --     25.1124                58.8072                70.5872
 Red. masses --      3.6020                 4.3803                 3.5540
 Frc consts  --      0.0013                 0.0089                 0.0104
 IR Inten    --      0.3496                 0.2584                 0.1390

                      4                      5                      6
                      A                      A                      A
 Frequencies --     79.7449                96.9250               140.7008
 Red. masses --      3.6992                 3.0743                 3.0835
 Frc consts  --      0.0139                 0.0170                 0.0360
 IR Inten    --      0.6143                 0.5986                 0.8926

                      7                      8                      9
                      A                      A                      A
 Frequencies --    167.7028               192.5025               243.9670
 Red. masses --      3.5967                 2.5290                 3.9832
 Frc consts  --      0.0596                 0.0552                 0.1397
 IR Inten    --      0.2151                 4.2713                 0.6583

                     10                     11                     12
                      A                      A                      A
 Frequencies --    286.2289               310.4236               317.6039
 Red. masses --      4.2417                 3.6245                 4.2046
 Frc consts  --      0.2047                 0.2058                 0.2499
 IR Inten    --      0.5738                 4.9420                 2.5399

                     13                     14                     15
                      A                      A                      A
 Frequencies --    331.5438               348.3215               365.8706
 Red. masses --      5.1458                 5.0754                 2.5464
 Frc consts  --      0.3333                 0.3628                 0.2008
 IR Inten    --      8.4011                 0.3362                 0.2727

                     16                     17                     18
                      A                      A                      A
 Frequencies --    380.2017               402.9616               458.4392
 Red. masses --      3.4799                 3.3287                 3.2018
 Frc consts  --      0.2964                 0.3185                 0.3965
 IR Inten    --      5.4253                 1.2565                 9.4288

                     19                     20                     21
                      A                      A                      A
 Frequencies --    483.8192               564.4463               581.1566
 Red. masses --      2.9133                 2.9494                 1.5991
 Frc consts  --      0.4018                 0.5536                 0.3182
 IR Inten    --      7.2172                15.2396                50.7934

                     22                     23                     24
                      A                      A                      A
 Frequencies --    596.2307               640.6372               643.7347
 Red. masses --      1.6930                 5.9369                 5.2306
 Frc consts  --      0.3546                 1.4356                 1.2771
 IR Inten    --     66.5759                 1.0155                 5.2654

                     25                     26                     27
                      A                      A                      A
 Frequencies --    654.8812               665.3512               687.9407
 Red. masses --      3.8096                 2.9515                 1.7598
 Frc consts  --      0.9626                 0.7698                 0.4907
 IR Inten    --      3.8332                 0.1520                42.9346

                     28                     29                     30
                      A                      A                      A
 Frequencies --    708.1462               734.2182               769.9470
 Red. masses --      2.0421                 3.8759                 2.3144
 Frc consts  --      0.6034                 1.2310                 0.8084
 IR Inten    --     68.5663                 9.1883                43.7290

                     31                     32                     33
                      A                      A                      A
 Frequencies --    785.2562               798.1989               845.2183
 Red. masses --      1.4830                 1.9024                 1.5217
 Frc consts  --      0.5388                 0.7141                 0.6405
 IR Inten    --     48.0199                29.0574                18.5004

                     34                     35                     36
                      A                      A                      A
 Frequencies --    853.5554               861.1011               870.1882
 Red. masses --      1.2791                 1.2515                 1.2508
 Frc consts  --      0.5491                 0.5467                 0.5580
 IR Inten    --      8.9190                 6.4626                16.9041

                     37                     38                     39
                      A                      A                      A
 Frequencies --    930.3213               940.1314               954.4844
 Red. masses --      1.6442                 1.6049                 2.7195
 Frc consts  --      0.8384                 0.8357                 1.4598
 IR Inten    --     13.7301                 6.7909                20.3487

                     40                     41                     42
                      A                      A                      A
 Frequencies --    966.8955               972.6999               977.2789
 Red. masses --      1.5778                 2.2874                 1.5325
 Frc consts  --      0.8691                 1.2751                 0.8624
 IR Inten    --      0.7162                 4.0777                 2.3284

                     43                     44                     45
                      A                      A                      A
 Frequencies --    994.1906               999.0241              1003.5135
 Red. masses --      1.9354                 1.8444                 1.5266
 Frc consts  --      1.1271                 1.0846                 0.9058
 IR Inten    --      1.4909                 2.4148                 0.2304

                     46                     47                     48
                      A                      A                      A
 Frequencies --   1018.1312              1032.1931              1049.5101
 Red. masses --      2.2453                 1.9247                 1.6648
 Frc consts  --      1.3713                 1.2082                 1.0804
 IR Inten    --      2.3503                 3.0318                 4.9313

                     49                     50                     51
                      A                      A                      A
 Frequencies --   1053.0302              1056.4899              1085.0574
 Red. masses --      1.4827                 1.3328                 1.3758
 Frc consts  --      0.9687                 0.8765                 0.9543
 IR Inten    --      6.1217                 2.1295                 0.0977

                     52                     53                     54
                      A                      A                      A
 Frequencies --   1090.4199              1092.0628              1105.3461
 Red. masses --      1.2521                 1.1637                 1.6180
 Frc consts  --      0.8772                 0.8177                 1.1647
 IR Inten    --      1.9155                 1.2996                 1.1604

                     55                     56                     57
                      A                      A                      A
 Frequencies --   1118.6767              1119.4305              1125.3517
 Red. masses --      1.1679                 1.3116                 1.2025
 Frc consts  --      0.8611                 0.9684                 0.8973
 IR Inten    --      1.3271                 1.9336                 0.5780

                     58                     59                     60
                      A                      A                      A
 Frequencies --   1144.9711              1152.0237              1165.0780
 Red. masses --      2.1221                 2.2176                 1.8691
 Frc consts  --      1.6391                 1.7340                 1.4948
 IR Inten    --      8.6652                 9.0594                 1.9514

                     61                     62                     63
                      A                      A                      A
 Frequencies --   1192.5122              1210.9790              1217.6782
 Red. masses --      1.5069                 1.1998                 1.4882
 Frc consts  --      1.2626                 1.0366                 1.3001
 IR Inten    --      2.9830                 0.3156                 4.6428

                     64                     65                     66
                      A                      A                      A
 Frequencies --   1224.1369              1238.5523              1259.5087
 Red. masses --      1.1463                 1.4525                 1.5084
 Frc consts  --      1.0120                 1.3127                 1.4099
 IR Inten    --      2.5441                 4.0435                 6.1419

                     67                     68                     69
                      A                      A                      A
 Frequencies --   1267.5225              1282.8600              1298.9146
 Red. masses --      1.3316                 1.8196                 1.3907
 Frc consts  --      1.2604                 1.7643                 1.3825
 IR Inten    --      0.4731                11.2522                 1.8869

                     70                     71                     72
                      A                      A                      A
 Frequencies --   1306.0512              1312.4499              1315.9858
 Red. masses --      1.4344                 3.2988                 6.3980
 Frc consts  --      1.4416                 3.3479                 6.5283
 IR Inten    --      5.3660                 1.8173                 2.8213

                     73                     74                     75
                      A                      A                      A
 Frequencies --   1327.6034              1336.7882              1359.2108
 Red. masses --      3.0644                 2.0774                 2.3751
 Frc consts  --      3.1822                 2.1873                 2.5853
 IR Inten    --      6.2311                 1.2588                18.9069

                     76                     77                     78
                      A                      A                      A
 Frequencies --   1366.9070              1377.2368              1398.9195
 Red. masses --      1.4403                 2.0679                 1.3664
 Frc consts  --      1.5855                 2.3110                 1.5754
 IR Inten    --      1.8110                24.2987                10.3707

                     79                     80                     81
                      A                      A                      A
 Frequencies --   1414.9758              1425.5057              1441.9998
 Red. masses --      1.4934                 1.3673                 1.8373
 Frc consts  --      1.7616                 1.6370                 2.2509
 IR Inten    --      2.3445                24.6428                50.6346

                     82                     83                     84
                      A                      A                      A
 Frequencies --   1546.5305              1550.8630              1601.4293
 Red. masses --      4.7936                 4.8383                 5.0516
 Frc consts  --      6.7550                 6.8563                 7.6329
 IR Inten    --     18.7837                16.8429                 2.5935

                     85                     86                     87
                      A                      A                      A
 Frequencies --   1605.7447              1792.8998              1796.7680
 Red. masses --      4.9617                 9.2928                 9.3836
 Frc consts  --      7.5376                17.5998                17.8485
 IR Inten    --      1.9551                 0.1589                 0.2480

                     88                     89                     90
                      A                      A                      A
 Frequencies --   1812.3717              1814.5667              2713.3870
 Red. masses --      9.3739                 9.3367                 1.0884
 Frc consts  --     18.1411                18.1129                 4.7211
 IR Inten    --      0.3763                 0.2458                 6.6851

                     91                     92                     93
                      A                      A                      A
 Frequencies --   2837.9190              2844.6392              2887.8920
 Red. masses --      1.0817                 1.0889                 1.0906
 Frc consts  --      5.1329                 5.1913                 5.3591
 IR Inten    --      6.0524                13.3085                 3.9877

                     94                     95                     96
                      A                      A                      A
 Frequencies --   2896.1367              2914.0193              2924.5025
 Red. masses --      1.0991                 1.0807                 1.0896
 Frc consts  --      5.4314                 5.4067                 5.4907
 IR Inten    --     36.3109                 1.9933                 4.9803

                     97                     98                     99
                      A                      A                      A
 Frequencies --   2941.5853              2943.5915              2949.5041
 Red. masses --      1.0970                 1.0628                 1.0972
 Frc consts  --      5.5927                 5.4257                 5.6238
 IR Inten    --     33.0162                 3.9882                34.5823

                    100                    101                    102
                      A                      A                      A
 Frequencies --   2961.2857              2968.6317              2969.4710
 Red. masses --      1.0940                 1.0944                 1.0953
 Frc consts  --      5.6525                 5.6823                 5.6904
 IR Inten    --     13.9946                 5.7800                16.2394

                    103                    104                    105
                      A                      A                      A
 Frequencies --   2974.4254              2975.3728              2987.2855
 Red. masses --      1.0988                 1.0994                 1.1078
 Frc consts  --      5.7274                 5.7346                 5.8248
 IR Inten    --     76.0793               101.0823                82.3047

                    106                    107                    108
                      A                      A                      A
 Frequencies --   2987.7285              3315.1218              3761.4733
 Red. masses --      1.1080                 1.0796                 1.0673
 Frc consts  --      5.8273                 6.9908                 8.8970
 IR Inten    --     24.9408                 3.3395                10.1167

 - Thermochemistry -
 -------------------
 Temperature   298.150 Kelvin.  Pressure   1.00000 Atm.
 Atom     1 has atomic number  6 and mass  12.00000

 Molecular mass:   253.14666 amu.
 Principal axes and moments of inertia in atomic units:
                           1         2         3
     Eigenvalues --  3323.974985200.038676630.84102
           X            0.99995   0.00995   0.00016
           Y           -0.00995   0.99975  -0.02015
           Z           -0.00036   0.02015   0.99980
 This molecule is an asymmetric top.
 Rotational symmetry number  1.
 Warning -- assumption of classical behavior for rotation
           may cause significant error
 Rotational temperatures (Kelvin)      0.02606     0.01666     0.01306
 Rotational constants (GHZ):           0.54295     0.34706     0.27217
 Zero-point vibrational energy     837502.2 (Joules/Mol)
                                  200.16782 (Kcal/Mol)
 Warning -- explicit consideration of  22 degrees of freedom as
           vibrations may cause significant error
 Vibrational temperatures:     36.13    84.61   101.56   114.74   139.45
          (Kelvin)            202.44   241.29   276.97   351.01   411.82
                              446.63   456.96   477.02   501.16   526.41
                              547.03   579.77   659.59   696.11   812.11
                              836.15   857.84   921.73   926.19   942.23
                              957.29   989.79  1018.86  1056.38  1107.78
                             1129.81  1148.43  1216.08  1228.08  1238.93
                             1252.01  1338.52  1352.64  1373.29  1391.15
                             1399.50  1406.09  1430.42  1437.37  1443.83
                             1464.86  1485.10  1510.01  1515.08  1520.05
                             1561.16  1568.87  1571.23  1590.35  1609.53
                             1610.61  1619.13  1647.36  1657.51  1676.29
                             1715.76  1742.33  1751.97  1761.26  1782.00
                             1812.15  1823.68  1845.75  1868.85  1879.12
                             1888.32  1893.41  1910.13  1923.34  1955.60
                             1966.67  1981.54  2012.73  2035.83  2050.98
                             2074.72  2225.11  2231.35  2304.10  2310.31
                             2579.58  2585.15  2607.60  2610.76  3903.96
                             4083.13  4092.80  4155.03  4166.89  4192.62
                             4207.71  4232.29  4235.17  4243.68  4260.63
                             4271.20  4272.41  4279.53  4280.90  4298.04
                             4298.67  4769.72  5411.92

 Zero-point correction=                           0.318988 (Hartree/Particle)
 Thermal correction to Energy=                    0.334526
 Thermal correction to Enthalpy=                  0.335470
 Thermal correction to Gibbs Free Energy=         0.275653
 Sum of electronic and zero-point Energies=              0.334435
 Sum of electronic and thermal Energies=                 0.349973
 Sum of electronic and thermal Enthalpies=               0.350917
 Sum of electronic and thermal Free Energies=            0.291100

                     E (Thermal)             CV                S
                      KCal/Mol        Cal/Mol-Kelvin    Cal/Mol-Kelvin
 Total                  209.918             63.577            125.896
 Electronic               0.000              0.000              0.000
 Translational            0.889              2.981             42.487
 Rotational               0.889              2.981             33.105
 Vibrational            208.141             57.616             50.305
 Vibration     1          0.593              1.985              6.182
 Vibration     2          0.596              1.974              4.497
 Vibration     3          0.598              1.968              4.137
 Vibration     4          0.600              1.963              3.897
 Vibration     5          0.603              1.951              3.515
 Vibration     6          0.615              1.913              2.794
 Vibration     7          0.624              1.882              2.461
 Vibration     8          0.634              1.850              2.204
 Vibration     9          0.659              1.773              1.774
 Vibration    10          0.684              1.699              1.496
 Vibration    11          0.699              1.654              1.360
 Vibration    12          0.704              1.640              1.322
 Vibration    13          0.714              1.613              1.253
 Vibration    14          0.726              1.579              1.174
 Vibration    15          0.739              1.542              1.097
 Vibration    16          0.750              1.512              1.038
 Vibration    17          0.768              1.464              0.952
 Vibration    18          0.816              1.342              0.771
 Vibration    19          0.840              1.286              0.700
 Vibration    20          0.920              1.108              0.515
 Vibration    21          0.938              1.072              0.483
 Vibration    22          0.954              1.040              0.456

 Optimization completed.
    -- Stationary point found.
 Normal termination of Gaussian 16 at Sun Nov 26 17:05:54 2017.
