 Gaussian 16, Revision A.03,
 Gaussian 16:  ES64L-G16RevA.03 25-Dec-2016

 ----------------------------------------------------------------------
 #p b3lyp empiricaldispersion=gd3bj 6-31g scrf=(pcm,solvent=benzene) op
 t freq=noraman
 ----------------------------------------------------------------------

 ------------
 Isolated Cat
 ------------
 Symbolic Z-matrix:
 Charge =  0 Multiplicity = 1

 SCF Done:  E(RB3LYP) =  -789.049965100     A.U. after   13 cycles
 SCF Done:  E(RB3LYP) =  -789.077912843     A.U. after   13 cycles
 SCF Done:  E(RB3LYP) =  -789.086187466     A.U. after   11 cycles
 SCF Done:  E(RB3LYP) =  -789.089958191     A.U. after   11 cycles
 SCF Done:  E(RB3LYP) =  -789.090547541     A.U. after   13 cycles
 SCF Done:  E(RB3LYP) =  -789.089321905     A.U. after   12 cycles
 SCF Done:  E(RB3LYP) =  -789.091128790     A.U. after   11 cycles
 SCF Done:  E(RB3LYP) =  -789.092503490     A.U. after   11 cycles
 SCF Done:  E(RB3LYP) =  -789.092926712     A.U. after   13 cycles
 SCF Done:  E(RB3LYP) =  -789.093009748     A.U. after   10 cycles
 SCF Done:  E(RB3LYP) =  -789.097381757     A.U. after    9 cycles
 SCF Done:  E(RB3LYP) =  -789.097403187     A.U. after    9 cycles
 SCF Done:  E(RB3LYP) =  -789.097414211     A.U. after    9 cycles
 SCF Done:  E(RB3LYP) =  -789.097425666     A.U. after    9 cycles
 SCF Done:  E(RB3LYP) =  -789.097441152     A.U. after    9 cycles
 SCF Done:  E(RB3LYP) =  -789.097446784     A.U. after    9 cycles
 SCF Done:  E(RB3LYP) =  -789.097448043     A.U. after    8 cycles
 SCF Done:  E(RB3LYP) =  -789.097448196     A.U. after    7 cycles
 SCF Done:  E(RB3LYP) =  -789.097448281     A.U. after    7 cycles
 Optimization completed.
    -- Stationary point found.

 1\1\GINC-HOLY7C01205\FOpt\RB3LYP\6-31G\C17H19N1O1\ROOT\28-Nov-2017\0\\
 #p b3lyp empiricaldispersion=gd3bj 6-31g scrf=(pcm,solvent=benzene) op
 t freq=noraman\\Isolated Cat\\0,1\C,-4.1279991719,0.7459714465,0.22196
 49121\C,-2.6299819466,0.4755267104,-0.0852182236\C,-2.98630761,2.87644
 26427,0.1649386356\C,-4.3477437233,2.2308422575,-0.1486940415\H,-4.796
 0137674,0.0785493624,-0.3265827186\H,-4.3129474969,0.5928663435,1.2915
 166619\H,-2.1589352572,-0.0967959714,0.7262860707\H,-2.9363161978,3.16
 63749014,1.231512201\H,-2.8078494025,3.7782867482,-0.4323938051\H,-5.1

 Normal termination of Gaussian 16 at Tue Nov 28 19:30:11 2017.

 -----------------------------------------------------------------
 #P Geom=AllCheck Guess=TCheck SCRF=Check GenChk RB3LYP/6-31G Freq
 -----------------------------------------------------------------

 Structure from the checkpoint file:  "/scratch/dhuang9_cat1_isolated_b3lyp_d3bj_631g_b/Gau-9397.chk"
 ------------
 Isolated Cat
 ------------
 Charge =  0 Multiplicity = 1

                         Standard orientation:
 ---------------------------------------------------------------------
 Center     Atomic      Atomic             Coordinates (Angstroms)
 Number     Number       Type             X           Y           Z
 ---------------------------------------------------------------------
      1          6           0        0.638675    1.858619   -1.232817
      2          6           0        0.390102    1.700044    0.291855
      3          6           0        2.716678    2.328788   -0.089811
      4          6           0        2.170700    1.734958   -1.400516
      5          1           0        0.095769    1.119421   -1.825641
      6          1           0        0.302978    2.851351   -1.554342
      7          1           0       -0.328475    2.448970    0.653427
      8          1           0        2.811595    3.427644   -0.177247
      9          1           0        3.705458    1.929991    0.165634
     10          1           0        2.538981    2.260077   -2.286718
     11          1           0        2.455846    0.681443   -1.476739
     12          7           0        1.708507    1.907057    0.881008
     13          1           0        1.754772    2.221974    1.836845
     14          6           0       -0.206282    0.318792    0.710364
     15          8           0       -0.221636    0.433300    2.187382
     16          1           0       -0.608364   -0.383383    2.564883
     17          6           0       -1.651705    0.105737    0.253470
     18          6           0       -2.260008   -1.136976    0.515785
     19          6           0       -2.426900    1.107597   -0.349657
     20          6           0       -3.597106   -1.371352    0.189853
     21          1           0       -1.671228   -1.934078    0.959483
     22          6           0       -3.766414    0.873857   -0.684674
     23          1           0       -1.998381    2.076879   -0.568207
     24          6           0       -4.357863   -0.363232   -0.414898
     25          1           0       -4.042147   -2.338329    0.400689
     26          1           0       -4.344978    1.662122   -1.155358
     27          1           0       -5.396027   -0.542203   -0.674237
     28          6           0        0.712788   -0.815281    0.276323
     29          6           0        1.825947   -1.146920    1.064334
     30          6           0        0.530296   -1.477025   -0.949243
     31          6           0        2.738362   -2.115686    0.635124
     32          1           0        1.967170   -0.627070    2.001206
     33          6           0        1.446266   -2.441042   -1.383325
     34          1           0       -0.331261   -1.242352   -1.563678
     35          6           0        2.555067   -2.763083   -0.592373
     36          1           0        3.594512   -2.360813    1.255767
     37          1           0        1.290516   -2.941682   -2.333617
     38          1           0        3.265185   -3.512520   -0.927030
 ---------------------------------------------------------------------

 SCF Done:  E(RB3LYP) =  -789.097448281     A.U. after    1 cycles

 The electronic state is 1-A.
 Alpha  occ. eigenvalues --  -19.13669 -14.29513 -10.24306 -10.20918 -10.19682
 Alpha  occ. eigenvalues --  -10.19650 -10.18983 -10.18941 -10.18880 -10.18828
 Alpha  occ. eigenvalues --  -10.18817 -10.18607 -10.18231 -10.18187 -10.18081
 Alpha  occ. eigenvalues --  -10.18029 -10.17552 -10.17477 -10.16998  -1.01456
 Alpha  occ. eigenvalues --   -0.90642  -0.86223  -0.85032  -0.78635  -0.75461
 Alpha  occ. eigenvalues --   -0.75092  -0.74380  -0.73929  -0.72651  -0.66358
 Alpha  occ. eigenvalues --   -0.61458  -0.60711  -0.59488  -0.58886  -0.57985
 Alpha  occ. eigenvalues --   -0.55458  -0.52582  -0.52198  -0.50091  -0.48366
 Alpha  occ. eigenvalues --   -0.47670  -0.46185  -0.45010  -0.44365  -0.43709
 Alpha  occ. eigenvalues --   -0.43522  -0.42446  -0.41680  -0.40571  -0.38771
 Alpha  occ. eigenvalues --   -0.38408  -0.37561  -0.37321  -0.36297  -0.35780
 Alpha  occ. eigenvalues --   -0.34739  -0.34541  -0.33885  -0.33470  -0.33401
 Alpha  occ. eigenvalues --   -0.32482  -0.31122  -0.27505  -0.25538  -0.24862
 Alpha  occ. eigenvalues --   -0.24278  -0.23828  -0.19031
 Alpha virt. eigenvalues --   -0.00838  -0.00643   0.00227   0.01065   0.08406
 Alpha virt. eigenvalues --    0.09262   0.10040   0.10773   0.12156   0.13235
 Alpha virt. eigenvalues --    0.13746   0.14269   0.14765   0.15257   0.15657

 Mulliken charges:
               1
     1  C   -0.285943
     2  C    0.086117
     3  C   -0.063184
     4  C   -0.270215
     5  H    0.143392
     6  H    0.133745
     7  H    0.131520
     8  H    0.106399
     9  H    0.131511
    10  H    0.126073
    11  H    0.158622
    12  N   -0.615805
    13  H    0.295368
    14  C    0.046156
    15  O   -0.611263
    16  H    0.359685
    17  C    0.120032
    18  C   -0.169949
    19  C   -0.156490
    20  C   -0.137955
    21  H    0.137370
    22  C   -0.143278
    23  H    0.138133
    24  C   -0.123143
    25  H    0.134690
    26  H    0.133621
    27  H    0.133715
    28  C    0.084440
    29  C   -0.121632
    30  C   -0.140814
    31  C   -0.146926
    32  H    0.141234
    33  C   -0.150655
    34  H    0.138481
    35  C   -0.124743
    36  H    0.126339
    37  H    0.127836
    38  H    0.127513
 Sum of Mulliken charges =   0.00000

 Dipole moment (field-independent basis, Debye):
    X=             -0.7370    Y=             -0.2833    Z=             -0.9098  Tot=              1.2046
 Quadrupole moment (field-independent basis, Debye-Ang):
   XX=           -104.4557   YY=           -105.9690   ZZ=           -111.1739
   XY=              0.9945   XZ=              2.3032   YZ=             -3.1272

  Exact polarizability: 235.918 -14.569 194.851  23.229  -0.172 152.613
 Approx polarizability: 291.724 -23.896 262.448  44.015   3.482 222.708

                      1                      2                      3
                      A                      A                      A
 Frequencies --     44.4757                56.2564                77.0359
 Red. masses --      3.7371                 3.7622                 3.8423
 Frc consts  --      0.0044                 0.0070                 0.0134
 IR Inten    --      0.0299                 0.5848                 0.8415

                      4                      5                      6
                      A                      A                      A
 Frequencies --     80.9720                93.3779               115.7939
 Red. masses --      3.8878                 3.9233                 3.1025
 Frc consts  --      0.0150                 0.0202                 0.0245
 IR Inten    --      0.8081                 0.7290                 1.7081

                      7                      8                      9
                      A                      A                      A
 Frequencies --    159.4471               209.8366               230.8667
 Red. masses --      3.6122                 3.8118                 3.6098
 Frc consts  --      0.0541                 0.0989                 0.1134
 IR Inten    --      1.1726                 8.4904                 3.1953

                     10                     11                     12
                      A                      A                      A
 Frequencies --    261.1806               275.1459               284.4521
 Red. masses --      2.4362                 2.0291                 1.8342
 Frc consts  --      0.0979                 0.0905                 0.0874
 IR Inten    --     26.0312                43.0799               100.4421

                     13                     14                     15
                      A                      A                      A
 Frequencies --    294.9559               311.2757               337.5164
 Red. masses --      3.3526                 4.4437                 4.3157
 Frc consts  --      0.1718                 0.2537                 0.2897
 IR Inten    --     23.4443                21.3740                30.5974

                     16                     17                     18
                      A                      A                      A
 Frequencies --    362.8569               392.9695               423.6046
 Red. masses --      1.8793                 2.1593                 2.8606
 Frc consts  --      0.1458                 0.1965                 0.3024
 IR Inten    --     48.8124               128.2837                 0.2439

                     19                     20                     21
                      A                      A                      A
 Frequencies --    435.8780               463.7490               492.7861
 Red. masses --      2.9092                 3.6425                 4.1202
 Frc consts  --      0.3257                 0.4615                 0.5895
 IR Inten    --      0.7198                 6.7498                 7.6685

                     22                     23                     24
                      A                      A                      A
 Frequencies --    587.1222               601.0620               639.2069
 Red. masses --      3.0836                 3.0073                 2.6863
 Frc consts  --      0.6263                 0.6401                 0.6467
 IR Inten    --      7.4199                16.4434                 6.1168

                     25                     26                     27
                      A                      A                      A
 Frequencies --    653.2176               654.6765               671.8477
 Red. masses --      6.4028                 6.3870                 4.6968
 Frc consts  --      1.6097                 1.6129                 1.2491
 IR Inten    --      0.1672                 0.2603                27.3354

                     28                     29                     30
                      A                      A                      A
 Frequencies --    725.6161               731.6525               736.9063
 Red. masses --      4.5386                 1.5837                 1.6128
 Frc consts  --      1.4080                 0.4995                 0.5160
 IR Inten    --      3.9856                63.6692                45.7796

                     31                     32                     33
                      A                      A                      A
 Frequencies --    776.1471               795.5657               804.3396
 Red. masses --      3.4885                 2.3584                 2.3665
 Frc consts  --      1.2381                 0.8795                 0.9021
 IR Inten    --     22.7272                43.6155                 5.0998

                     34                     35                     36
                      A                      A                      A
 Frequencies --    869.8631               881.1071               882.3599
 Red. masses --      1.8564                 1.2581                 1.2589
 Frc consts  --      0.8276                 0.5755                 0.5775
 IR Inten    --     12.7721                 0.8190                 0.4990

                     37                     38                     39
                      A                      A                      A
 Frequencies --    909.1203               917.6740               938.0781
 Red. masses --      2.0016                 3.4167                 2.2123
 Frc consts  --      0.9747                 1.6952                 1.1470
 IR Inten    --      1.1487                35.4457                12.4737

                     40                     41                     42
                      A                      A                      A
 Frequencies --    953.5671               957.1706               970.1839
 Red. masses --      1.8861                 1.6159                 2.3184
 Frc consts  --      1.0105                 0.8723                 1.2857
 IR Inten    --     22.8018                 0.7596                29.3898

                     43                     44                     45
                      A                      A                      A
 Frequencies --    988.5859              1002.9239              1006.3606
 Red. masses --      2.6250                 1.6201                 1.3951
 Frc consts  --      1.5115                 0.9601                 0.8325
 IR Inten    --      9.0475                 6.3088                 0.8582

                     46                     47                     48
                      A                      A                      A
 Frequencies --   1009.3720              1020.5814              1030.5346
 Red. masses --      2.0456                 2.2417                 1.4536
 Frc consts  --      1.2279                 1.3757                 0.9095
 IR Inten    --     24.6682                14.7597                 3.4662

                     49                     50                     51
                      A                      A                      A
 Frequencies --   1033.3244              1040.4518              1041.8876
 Red. masses --      1.3383                 5.8197                 6.0961
 Frc consts  --      0.8419                 3.7119                 3.8989
 IR Inten    --      1.1190                 0.6794                 2.2980

                     52                     53                     54
                      A                      A                      A
 Frequencies --   1069.9518              1072.8872              1103.2458
 Red. masses --      2.2736                 2.2260                 2.1336
 Frc consts  --      1.5335                 1.5097                 1.5301
 IR Inten    --      5.5310                 5.6659                 2.3554

                     55                     56                     57
                      A                      A                      A
 Frequencies --   1125.9450              1133.4404              1143.4142
 Red. masses --      1.6307                 1.6479                 1.7642
 Frc consts  --      1.2180                 1.2473                 1.3589
 IR Inten    --      0.4253                 6.3732                 4.5734

                     58                     59                     60
                      A                      A                      A
 Frequencies --   1175.8556              1200.2982              1217.1715
 Red. masses --      2.9359                 1.4487                 1.9651
 Frc consts  --      2.3917                 1.2297                 1.7153
 IR Inten    --     72.4594                 6.6440                 3.5326

                     61                     62                     63
                      A                      A                      A
 Frequencies --   1219.5772              1223.5145              1226.5424
 Red. masses --      1.1564                 1.0823                 1.3979
 Frc consts  --      1.0134                 0.9546                 1.2390
 IR Inten    --      0.8199                 0.0363                 7.2569

                     64                     65                     66
                      A                      A                      A
 Frequencies --   1235.9590              1246.4055              1259.0739
 Red. masses --      1.1516                 1.2433                 2.1271
 Frc consts  --      1.0365                 1.1380                 1.9867
 IR Inten    --      5.5441                 1.8739                21.1671

                     67                     68                     69
                      A                      A                      A
 Frequencies --   1276.3695              1302.9026              1319.8602
 Red. masses --      1.4099                 1.3325                 1.6664
 Frc consts  --      1.3533                 1.3327                 1.7104
 IR Inten    --     11.1332                43.3747                57.6924

                     70                     71                     72
                      A                      A                      A
 Frequencies --   1361.2203              1366.6674              1369.1830
 Red. masses --      2.1582                 1.8182                 4.0033
 Frc consts  --      2.3561                 2.0009                 4.4217
 IR Inten    --      8.5574                 2.9180                 0.9776

                     73                     74                     75
                      A                      A                      A
 Frequencies --   1372.2552              1385.4253              1390.3977
 Red. masses --      1.5207                 1.4480                 1.4906
 Frc consts  --      1.6872                 1.6376                 1.6978
 IR Inten    --      2.7495                 3.0908                29.6681

                     76                     77                     78
                      A                      A                      A
 Frequencies --   1401.2393              1430.7051              1486.2573
 Red. masses --      1.3622                 1.3433                 1.4061
 Frc consts  --      1.5759                 1.6200                 1.8301
 IR Inten    --      2.5142                 9.9405                27.5708

                     79                     80                     81
                      A                      A                      A
 Frequencies --   1503.6526              1508.6085              1534.5317
 Red. masses --      2.0516                 2.0997                 1.0921
 Frc consts  --      2.7330                 2.8156                 1.5152
 IR Inten    --     12.2881                11.5007                 6.3990

                     82                     83                     84
                      A                      A                      A
 Frequencies --   1541.6369              1552.0411              1558.7802
 Red. masses --      1.0918                 2.0757                 2.0380
 Frc consts  --      1.5289                 2.9460                 2.9175
 IR Inten    --      9.0467                11.7628                15.1917

                     85                     86                     87
                      A                      A                      A
 Frequencies --   1574.4286              1638.5801              1642.6988
 Red. masses --      1.0901                 5.3521                 5.4549
 Frc consts  --      1.5921                 8.4666                 8.6726
 IR Inten    --      3.5024                 1.3949                 0.8873

                     88                     89                     90
                      A                      A                      A
 Frequencies --   1661.5708              1664.7519              2932.1246
 Red. masses --      5.5732                 5.5021                 1.0731
 Frc consts  --      9.0656                 8.9841                 5.4356
 IR Inten    --      2.6878                 1.8814               201.4730

                     91                     92                     93
                      A                      A                      A
 Frequencies --   3010.5337              3061.0686              3066.5172
 Red. masses --      1.0829                 1.0839                 1.0684
 Frc consts  --      5.7829                 5.9837                 5.9193
 IR Inten    --     84.3282                64.4439                34.5371

                     94                     95                     96
                      A                      A                      A
 Frequencies --   3084.5683              3130.8923              3140.8969
 Red. masses --      1.0618                 1.0992                 1.1006
 Frc consts  --      5.9524                 6.3487                 6.3971
 IR Inten    --     46.1303                21.9939                54.7466

                     97                     98                     99
                      A                      A                      A
 Frequencies --   3189.7220              3190.3116              3198.3280
 Red. masses --      1.0853                 1.0859                 1.0877
 Frc consts  --      6.5061                 6.5119                 6.5555
 IR Inten    --      1.6488                 6.3021                 2.3097

                    100                    101                    102
                      A                      A                      A
 Frequencies --   3200.0083              3208.9901              3214.0441
 Red. masses --      1.0893                 1.0928                 1.0935
 Frc consts  --      6.5718                 6.6300                 6.6552
 IR Inten    --     21.6857                39.6439                55.6866

                    103                    104                    105
                      A                      A                      A
 Frequencies --   3223.6949              3225.2045              3243.7019
 Red. masses --      1.0976                 1.0967                 1.0929
 Frc consts  --      6.7207                 6.7216                 6.7750
 IR Inten    --     41.9045                21.2672                14.4638

                    106                    107                    108
                      A                      A                      A
 Frequencies --   3264.4202              3627.4165              3666.6248
 Red. masses --      1.0921                 1.0658                 1.0768
 Frc consts  --      6.8567                 8.2624                 8.5290
 IR Inten    --      4.4958                 6.3419                 9.0987

 - Thermochemistry -
 -------------------
 Temperature   298.150 Kelvin.  Pressure   1.00000 Atm.
 Atom     1 has atomic number  6 and mass  12.00000

 Molecular mass:   253.14666 amu.
 Principal axes and moments of inertia in atomic units:
                           1         2         3
     Eigenvalues --  3209.007765509.148956943.27102
           X            0.99992   0.01273   0.00072
           Y           -0.01271   0.99981  -0.01484
           Z           -0.00091   0.01483   0.99989
 This molecule is an asymmetric top.
 Rotational symmetry number  1.
 Warning -- assumption of classical behavior for rotation
           may cause significant error
 Rotational temperatures (Kelvin)      0.02699     0.01572     0.01247
 Rotational constants (GHZ):           0.56240     0.32759     0.25993
 Zero-point vibrational energy     858984.9 (Joules/Mol)
                                  205.30231 (Kcal/Mol)
 Warning -- explicit consideration of  23 degrees of freedom as
           vibrations may cause significant error
 Vibrational temperatures:     63.99    80.94   110.84   116.50   134.35
          (Kelvin)            166.60   229.41   301.91   332.17   375.78
                              395.87   409.26   424.38   447.86   485.61
                              522.07   565.40   609.47   627.13   667.23
                              709.01   844.74   864.79   919.68   939.83
                              941.93   966.64  1044.00  1052.68  1060.24
                             1116.70  1144.64  1157.27  1251.54  1267.72
                             1269.52  1308.02  1320.33  1349.69  1371.97
                             1377.16  1395.88  1422.35  1442.98  1447.93
                             1452.26  1468.39  1482.71  1486.72  1496.98
                             1499.04  1539.42  1543.65  1587.32  1619.98
                             1630.77  1645.12  1691.79  1726.96  1751.24
                             1754.70  1760.36  1764.72  1778.27  1793.30
                             1811.53  1836.41  1874.59  1898.98  1958.49
                             1966.33  1969.95  1974.37  1993.32  2000.47
                             2016.07  2058.47  2138.39  2163.42  2170.55
                             2207.85  2218.07  2233.04  2242.74  2265.25
                             2357.55  2363.48  2390.63  2395.21  4218.67
                             4331.49  4404.19  4412.03  4438.01  4504.66
                             4519.05  4589.30  4590.15  4601.68  4604.10
                             4617.02  4624.29  4638.18  4640.35  4666.96
                             4696.77  5219.04  5275.46

 Zero-point correction=                           0.327170 (Hartree/Particle)
 Thermal correction to Energy=                    0.343230
 Thermal correction to Enthalpy=                  0.344174
 Thermal correction to Gibbs Free Energy=         0.283742
 Sum of electronic and zero-point Energies=           -788.770278
 Sum of electronic and thermal Energies=              -788.754218
 Sum of electronic and thermal Enthalpies=            -788.753274
 Sum of electronic and thermal Free Energies=         -788.813707

                     E (Thermal)             CV                S
                      KCal/Mol        Cal/Mol-Kelvin    Cal/Mol-Kelvin
 Total                  215.380             64.757            127.191
 Electronic               0.000              0.000              0.000
 Translational            0.889              2.981             42.487
 Rotational               0.889              2.981             33.173
 Vibrational            213.603             58.796             51.531
 Vibration     1          0.595              1.980              5.049
 Vibration     2          0.596              1.975              4.584
 Vibration     3          0.599              1.964              3.965
 Vibration     4          0.600              1.962              3.867
 Vibration     5          0.602              1.954              3.588
 Vibration     6          0.608              1.936              3.169
 Vibration     7          0.621              1.892              2.556
 Vibration     8          0.642              1.826              2.045
 Vibration     9          0.653              1.794              1.872
 Vibration    10          0.669              1.744              1.654
 Vibration    11          0.677              1.719              1.564
 Vibration    12          0.683              1.703              1.507
 Vibration    13          0.689              1.683              1.445
 Vibration    14          0.700              1.652              1.356
 Vibration    15          0.718              1.601              1.224
 Vibration    16          0.737              1.549              1.110
 Vibration    17          0.760              1.485              0.989
 Vibration    18          0.786              1.419              0.880
 Vibration    19          0.796              1.392              0.840
 Vibration    20          0.821              1.330              0.755
 Vibration    21          0.848              1.266              0.676
 Vibration    22          0.944              1.059              0.472
 Vibration    23          0.959              1.030              0.448

 Optimization completed.
    -- Stationary point found.

 1\1\GINC-HOLY7C01205\Freq\RB3LYP\6-31G\C17H19N1O1\ROOT\28-Nov-2017\0\\
 #P Geom=AllCheck Guess=TCheck SCRF=Check GenChk RB3LYP/6-31G Freq\\Iso
 lated Cat\\0,1\C,-4.1279991719,0.7459714465,0.2219649121\C,-2.62998194
 66,0.4755267104,-0.0852182236\C,-2.98630761,2.8764426427,0.1649386356\
 C,-4.3477437233,2.2308422575,-0.1486940415\H,-4.7960137674,0.078549362
 4,-0.3265827186\H,-4.3129474969,0.5928663435,1.2915166619\H,-2.1589352
 572,-0.0967959714,0.7262860707\H,-2.9363161978,3.1663749014,1.23151220
 1\H,-2.8078494025,3.7782867482,-0.4323938051\H,-5.169192646,2.68571822

 Normal termination of Gaussian 16 at Tue Nov 28 19:45:37 2017.
