 Gaussian 16, Revision A.03,
 Gaussian 16:  ES64L-G16RevA.03 25-Dec-2016

 ----------------------------------------------------------------------
 #p b3lyp empiricaldispersion=gd3bj 6-31g scrf=(pcm,solvent=benzene) op
 t freq=noraman
 ----------------------------------------------------------------------

 ------
 Me cat
 ------
 Symbolic Z-matrix:
 Charge =  0 Multiplicity = 1

 SCF Done:  E(RB3LYP) =  -480.624704510     A.U. after   12 cycles
 SCF Done:  E(RB3LYP) =  -480.639852890     A.U. after   13 cycles
 SCF Done:  E(RB3LYP) =  -480.642059476     A.U. after   13 cycles
 SCF Done:  E(RB3LYP) =  -480.645276426     A.U. after   13 cycles
 SCF Done:  E(RB3LYP) =  -480.646590563     A.U. after   10 cycles
 SCF Done:  E(RB3LYP) =  -480.647411446     A.U. after   12 cycles
 SCF Done:  E(RB3LYP) =  -480.648422262     A.U. after   13 cycles
 SCF Done:  E(RB3LYP) =  -480.649238814     A.U. after   12 cycles
 SCF Done:  E(RB3LYP) =  -480.647919830     A.U. after   11 cycles
 SCF Done:  E(RB3LYP) =  -480.650437419     A.U. after   11 cycles
 SCF Done:  E(RB3LYP) =  -480.654824280     A.U. after   10 cycles
 SCF Done:  E(RB3LYP) =  -480.654889478     A.U. after   10 cycles
 SCF Done:  E(RB3LYP) =  -480.654908318     A.U. after   10 cycles
 SCF Done:  E(RB3LYP) =  -480.654914182     A.U. after   10 cycles
 SCF Done:  E(RB3LYP) =  -480.654916535     A.U. after    8 cycles
 SCF Done:  E(RB3LYP) =  -480.654916848     A.U. after    8 cycles
 SCF Done:  E(RB3LYP) =  -480.654916908     A.U. after    7 cycles
 SCF Done:  E(RB3LYP) =  -480.654917102     A.U. after    8 cycles
 SCF Done:  E(RB3LYP) =  -480.654917197     A.U. after    7 cycles
 Optimization completed.
    -- Stationary point found.
 Normal termination of Gaussian 16 at Wed Dec  6 23:46:11 2017.

 -----------------------------------------------------------------
 #P Geom=AllCheck Guess=TCheck SCRF=Check GenChk RB3LYP/6-31G Freq
 -----------------------------------------------------------------

 Structure from the checkpoint file:  "/scratch/dhuang9_cat1_nme_isolated_b3lyp_d3bj_631g/Gau-161413.chk"
 ------
 Me cat
 ------
 Charge =  0 Multiplicity = 1

                         Standard orientation:
 ---------------------------------------------------------------------
 Center     Atomic      Atomic             Coordinates (Angstroms)
 Number     Number       Type             X           Y           Z
 ---------------------------------------------------------------------
      1          7           0       -1.993508   -0.856995   -0.127517
      2          1           0       -1.132492   -1.395979   -0.132034
      3          6           0       -1.894783    0.344336    0.692284
      4          1           0       -2.828774    0.908596    0.589502
      5          6           0       -0.747417    1.276440    0.273660
      6          1           0       -0.645398    2.035275    1.064236
      7          8           0       -1.159624    1.926921   -0.966000
      8          1           0       -0.418477    2.467684   -1.307652
      9          6           0        0.576672    0.552274    0.122592
     10          6           0        1.453887    0.445898    1.212443
     11          6           0        0.922141   -0.053289   -1.096858
     12          6           0        2.656437   -0.257569    1.090248
     13          1           0        1.195308    0.918866    2.155928
     14          6           0        2.126955   -0.753394   -1.220556
     15          1           0        0.237604    0.029863   -1.932738
     16          6           0        2.996260   -0.858523   -0.128078
     17          1           0        3.328666   -0.330785    1.938988
     18          1           0        2.385788   -1.217049   -2.167032
     19          1           0        3.931154   -1.400592   -0.225427
     20          6           0       -3.179633   -1.675497    0.115580
     21          1           0       -4.079278   -1.102374   -0.136954
     22          1           0       -3.152230   -2.558723   -0.529307
     23          1           0       -3.287460   -2.018164    1.163464
     24          1           0       -1.765982    0.122926    1.771755
 ---------------------------------------------------------------------

 SCF Done:  E(RB3LYP) =  -480.654917197     A.U. after    1 cycles

 The electronic state is 1-A.
 Alpha  occ. eigenvalues --  -19.13701 -14.30420 -10.23966 -10.20336 -10.19631
 Alpha  occ. eigenvalues --  -10.19283 -10.19115 -10.19064 -10.19002 -10.18950
 Alpha  occ. eigenvalues --  -10.18610  -1.01590  -0.89628  -0.86020  -0.77625
 Alpha  occ. eigenvalues --   -0.74981  -0.72520  -0.65981  -0.62094  -0.60974
 Alpha  occ. eigenvalues --   -0.57697  -0.52664  -0.50484  -0.48020  -0.47246
 Alpha  occ. eigenvalues --   -0.44655  -0.44193  -0.42797  -0.42438  -0.40739
 Alpha  occ. eigenvalues --   -0.38840  -0.37864  -0.37144  -0.36011  -0.35245
 Alpha  occ. eigenvalues --   -0.34460  -0.31480  -0.27423  -0.25504  -0.24572
 Alpha  occ. eigenvalues --   -0.20004
 Alpha virt. eigenvalues --   -0.00641  -0.00389   0.07934   0.09885   0.10832
 Alpha virt. eigenvalues --    0.11618   0.13754   0.14714   0.15053   0.16280
 Alpha virt. eigenvalues --    0.16467   0.17456   0.17932   0.18334   0.19187

 Mulliken charges:
               1
     1  N   -0.571550
     2  H    0.290385
     3  C   -0.076680
     4  H    0.156345
     5  C    0.051458
     6  H    0.128852
     7  O   -0.613574
     8  H    0.362115
     9  C    0.026842
    10  C   -0.151835
    11  C   -0.147537
    12  C   -0.137181
    13  H    0.132744
    14  C   -0.136322
    15  H    0.158836
    16  C   -0.126359
    17  H    0.134297
    18  H    0.135332
    19  H    0.133866
    20  C   -0.253923
    21  H    0.148664
    22  H    0.142838
    23  H    0.108420
    24  H    0.103967
 Sum of Mulliken charges =   0.00000

 Dipole moment (field-independent basis, Debye):
    X=              1.9947    Y=             -0.4278    Z=              1.5809  Tot=              2.5809
 Quadrupole moment (field-independent basis, Debye-Ang):
   XX=            -65.6852   YY=            -63.2013   ZZ=            -64.1654
   XY=              1.8013   XZ=             -3.8615   YZ=              1.9632

  Exact polarizability: 130.963 -19.648  86.080   4.332  12.416 112.100
 Approx polarizability: 159.358 -34.697 107.867  10.393  20.562 161.521

                      1                      2                      3
                      A                      A                      A
 Frequencies --     31.7645                76.3696                88.9339
 Red. masses --      3.3209                 3.9040                 2.3938
 Frc consts  --      0.0020                 0.0134                 0.0112
 IR Inten    --      1.5367                 0.6301                 6.7141

                      4                      5                      6
                      A                      A                      A
 Frequencies --    123.0598               199.2265               233.0807
 Red. masses --      2.3495                 2.8813                 2.7673
 Frc consts  --      0.0210                 0.0674                 0.0886
 IR Inten    --      1.5947                 1.9034                 3.9816

                      7                      8                      9
                      A                      A                      A
 Frequencies --    250.9121               295.8258               323.8578
 Red. masses --      1.7323                 3.2826                 1.1463
 Frc consts  --      0.0643                 0.1693                 0.0708
 IR Inten    --      5.1539                 3.1087               201.2516

                     10                     11                     12
                      A                      A                      A
 Frequencies --    337.9805               408.3520               427.1376
 Red. masses --      2.5087                 4.1214                 2.8439
 Frc consts  --      0.1688                 0.4049                 0.3057
 IR Inten    --      9.9763                 8.3555                 1.3999

                     13                     14                     15
                      A                      A                      A
 Frequencies --    522.6800               581.6801               650.3238
 Red. masses --      3.4936                 3.6067                 4.9317
 Frc consts  --      0.5623                 0.7190                 1.2289
 IR Inten    --      1.6585                34.0646                16.3347

                     16                     17                     18
                      A                      A                      A
 Frequencies --    666.5901               705.1535               732.4413
 Red. masses --      1.5205                 4.0060                 1.6126
 Frc consts  --      0.3981                 1.1736                 0.5097
 IR Inten    --    134.9313                44.6663                55.1192

                     19                     20                     21
                      A                      A                      A
 Frequencies --    788.6852               827.7946               883.1043
 Red. masses --      2.4492                 2.8865                 1.2720
 Frc consts  --      0.8976                 1.1654                 0.5845
 IR Inten    --     20.6602                 3.0597                 1.6964

                     22                     23                     24
                      A                      A                      A
 Frequencies --    895.1878               951.0707               980.6069
 Red. masses --      2.6083                 1.3998                 2.2320
 Frc consts  --      1.2315                 0.7460                 1.2645
 IR Inten    --     28.5142                 1.1884                39.4447

                     25                     26                     27
                      A                      A                      A
 Frequencies --   1004.6856              1029.2371              1033.3394
 Red. masses --      1.3775                 2.2811                 1.4594
 Frc consts  --      0.8192                 1.4237                 0.9182
 IR Inten    --      0.3019                13.3985                 1.8777

                     28                     29                     30
                      A                      A                      A
 Frequencies --   1039.4142              1064.9232              1073.2171
 Red. masses --      5.2953                 2.3150                 1.9867
 Frc consts  --      3.3707                 1.5468                 1.3482
 IR Inten    --      4.2780                22.5242                26.3186

                     31                     32                     33
                      A                      A                      A
 Frequencies --   1124.9990              1159.6144              1177.0688
 Red. masses --      1.6337                 1.9128                 1.7727
 Frc consts  --      1.2183                 1.5155                 1.4471
 IR Inten    --      2.6645                12.0822                39.6423

                     34                     35                     36
                      A                      A                      A
 Frequencies --   1190.3422              1220.3759              1229.4154
 Red. masses --      1.6606                 1.0813                 1.1509
 Frc consts  --      1.3863                 0.9488                 1.0249
 IR Inten    --     40.4449                 0.2418                 1.8345

                     37                     38                     39
                      A                      A                      A
 Frequencies --   1244.2244              1267.2845              1312.9563
 Red. masses --      2.2562                 1.3352                 1.2911
 Frc consts  --      2.0579                 1.2634                 1.3113
 IR Inten    --      0.6071                28.5783                 8.8840

                     40                     41                     42
                      A                      A                      A
 Frequencies --   1348.0268              1379.8295              1403.5812
 Red. masses --      1.9484                 2.4577                 1.4612
 Frc consts  --      2.0860                 2.7570                 1.6961
 IR Inten    --     33.0443                 4.8971                17.5818

                     43                     44                     45
                      A                      A                      A
 Frequencies --   1408.9242              1436.6777              1497.1428
 Red. masses --      1.4119                 1.3270                 1.1426
 Frc consts  --      1.6513                 1.6138                 1.5090
 IR Inten    --      3.6502                17.0046                 2.8012

                     46                     47                     48
                      A                      A                      A
 Frequencies --   1511.9695              1523.4922              1530.3061
 Red. masses --      1.9914                 1.1359                 1.1274
 Frc consts  --      2.6822                 1.5533                 1.5555
 IR Inten    --     10.5462                40.7988                 0.1474

                     49                     50                     51
                      A                      A                      A
 Frequencies --   1544.7339              1552.5551              1559.4102
 Red. masses --      1.1240                 2.0411                 1.0498
 Frc consts  --      1.5802                 2.8987                 1.5040
 IR Inten    --     18.3720                14.2251                 9.7113

                     52                     53                     54
                      A                      A                      A
 Frequencies --   1643.7237              1663.9022              2904.5977
 Red. masses --      5.4968                 5.5774                 1.0713
 Frc consts  --      8.7502                 9.0978                 5.3251
 IR Inten    --      0.5209                 1.8318                81.4652

                     55                     56                     57
                      A                      A                      A
 Frequencies --   2929.0291              3004.1952              3069.0414
 Red. masses --      1.0608                 1.0836                 1.0704
 Frc consts  --      5.3622                 5.7619                 5.9403
 IR Inten    --    174.5074                79.1181                56.9340

                     58                     59                     60
                      A                      A                      A
 Frequencies --   3083.8298              3127.2154              3185.0821
 Red. masses --      1.0850                 1.0994                 1.0873
 Frc consts  --      6.0792                 6.3344                 6.4992
 IR Inten    --     37.3114                37.6694                10.5801

                     61                     62                     63
                      A                      A                      A
 Frequencies --   3196.7591              3207.9850              3222.4135
 Red. masses --      1.0871                 1.0920                 1.0965
 Frc consts  --      6.5456                 6.6214                 6.7086
 IR Inten    --      1.6243                37.8418                33.6263

                     64                     65                     66
                      A                      A                      A
 Frequencies --   3234.8160              3545.9296              3627.8956
 Red. masses --      1.0952                 1.0741                 1.0657
 Frc consts  --      6.7522                 7.9568                 8.2638
 IR Inten    --      7.5513                 1.7559                 6.8510

 - Thermochemistry -
 -------------------
 Temperature   298.150 Kelvin.  Pressure   1.00000 Atm.
 Atom     1 has atomic number  7 and mass  14.00307

 Molecular mass:   151.09971 amu.
 Principal axes and moments of inertia in atomic units:
                           1         2         3
     Eigenvalues --  1027.494852609.016732840.67381
           X            0.99983   0.01692  -0.00703
           Y           -0.01656   0.99870   0.04822
           Z            0.00783  -0.04810   0.99881
 This molecule is an asymmetric top.
 Rotational symmetry number  1.
 Warning -- assumption of classical behavior for rotation
           may cause significant error
 Rotational temperatures (Kelvin)      0.08430     0.03320     0.03049
 Rotational constants (GHZ):           1.75645     0.69173     0.63532
 Zero-point vibrational energy     547267.5 (Joules/Mol)
                                  130.80007 (Kcal/Mol)
 Warning -- explicit consideration of  14 degrees of freedom as
           vibrations may cause significant error
 Vibrational temperatures:     45.70   109.88   127.96   177.06   286.64
          (Kelvin)            335.35   361.01   425.63   465.96   486.28
                              587.53   614.56   752.02   836.91   935.67
                              959.07  1014.56  1053.82  1134.74  1191.01
                             1270.59  1287.98  1368.38  1410.87  1445.52
                             1480.84  1486.74  1495.49  1532.19  1544.12
                             1618.62  1668.43  1693.54  1712.64  1755.85
                             1768.85  1790.16  1823.34  1889.05  1939.51
                             1985.27  2019.44  2027.13  2067.06  2154.05
                             2175.39  2191.97  2201.77  2222.53  2233.78
                             2243.64  2364.95  2393.98  4179.07  4214.22
                             4322.37  4415.67  4436.94  4499.37  4582.62
                             4599.42  4615.57  4636.33  4654.18  5101.80
                             5219.73

 Zero-point correction=                           0.208443 (Hartree/Particle)
 Thermal correction to Energy=                    0.219320
 Thermal correction to Enthalpy=                  0.220265
 Thermal correction to Gibbs Free Energy=         0.171058
 Sum of electronic and zero-point Energies=           -480.446474
 Sum of electronic and thermal Energies=              -480.435597
 Sum of electronic and thermal Enthalpies=            -480.434653
 Sum of electronic and thermal Free Energies=         -480.483859

                     E (Thermal)             CV                S
                      KCal/Mol        Cal/Mol-Kelvin    Cal/Mol-Kelvin
 Total                  137.626             40.677            103.564
 Electronic               0.000              0.000              0.000
 Translational            0.889              2.981             40.948
 Rotational               0.889              2.981             30.411
 Vibrational            135.848             34.716             32.205
 Vibration     1          0.594              1.983              5.716
 Vibration     2          0.599              1.965              3.982
 Vibration     3          0.602              1.957              3.683
 Vibration     4          0.610              1.930              3.052
 Vibration     5          0.637              1.841              2.140
 Vibration     6          0.654              1.790              1.855
 Vibration     7          0.663              1.761              1.724
 Vibration     8          0.690              1.682              1.440
 Vibration     9          0.708              1.628              1.291
 Vibration    10          0.718              1.600              1.222
 Vibration    11          0.773              1.452              0.932
 Vibration    12          0.789              1.411              0.868
 Vibration    13          0.878              1.200              0.604
 Vibration    14          0.938              1.071              0.482

 Optimization completed.
    -- Stationary point found.
 Normal termination of Gaussian 16 at Wed Dec  6 23:50:07 2017.
