 Gaussian 16, Revision A.03,
 Gaussian 16:  ES64L-G16RevA.03 25-Dec-2016

 ------------------------------------------------------------
 #p pddg scrf=(pcm,solvent=perfluorobenzene) opt freq=noraman
 ------------------------------------------------------------

 ---------
 No Cp cat
 ---------
 Symbolic Z-matrix:
 Charge =  0 Multiplicity = 1

 SCF Done:  E(RPDDG) = -0.545839984011E-02 A.U. after   14 cycles
 SCF Done:  E(RPDDG) = -0.246566062488E-01 A.U. after   14 cycles
 SCF Done:  E(RPDDG) = -0.295052698855E-01 A.U. after   13 cycles
 SCF Done:  E(RPDDG) = -0.291821339642E-01 A.U. after   14 cycles
 SCF Done:  E(RPDDG) = -0.324167697353E-01 A.U. after   13 cycles
 SCF Done:  E(RPDDG) = -0.327697494516E-01 A.U. after   13 cycles
 SCF Done:  E(RPDDG) = -0.329317162658E-01 A.U. after   12 cycles
 SCF Done:  E(RPDDG) = -0.330093255334E-01 A.U. after   14 cycles
 SCF Done:  E(RPDDG) = -0.332771986148E-01 A.U. after   13 cycles
 SCF Done:  E(RPDDG) = -0.333365184988E-01 A.U. after   13 cycles
 SCF Done:  E(RPDDG) = -0.333761044266E-01 A.U. after   13 cycles
 SCF Done:  E(RPDDG) = -0.334237550154E-01 A.U. after   12 cycles
 SCF Done:  E(RPDDG) = -0.334255050947E-01 A.U. after   10 cycles
 SCF Done:  E(RPDDG) = -0.334268269563E-01 A.U. after   11 cycles
 SCF Done:  E(RPDDG) = -0.334272439526E-01 A.U. after   10 cycles
 SCF Done:  E(RPDDG) = -0.334275574409E-01 A.U. after   10 cycles
 SCF Done:  E(RPDDG) = -0.334277458913E-01 A.U. after   11 cycles
 SCF Done:  E(RPDDG) = -0.334277645713E-01 A.U. after    9 cycles
 SCF Done:  E(RPDDG) = -0.334277761689E-01 A.U. after    9 cycles
 Optimization completed.
    -- Stationary point found.
 Normal termination of Gaussian 16 at Sat Dec  2 17:54:20 2017.

 --------------------------------------------------------------
 #P Geom=AllCheck Guess=TCheck SCRF=Check GenChk RPDDG/ZDO Freq
 --------------------------------------------------------------

 Structure from the checkpoint file:  "/scratch/dhuang9_cat1_nocp_isolated/Gau-22752.chk"
 ---------
 No Cp cat
 ---------
 Charge =  0 Multiplicity = 1

                         Standard orientation:
 ---------------------------------------------------------------------
 Center     Atomic      Atomic             Coordinates (Angstroms)
 Number     Number       Type             X           Y           Z
 ---------------------------------------------------------------------
      1          7           0       -2.744781   -1.083734   -0.487378
      2          1           0       -3.066720   -1.977020   -0.207904
      3          1           0       -2.031605   -1.193901   -1.168086
      4          6           0       -2.250411   -0.354811    0.704135
      5          1           0       -3.149019    0.110743    1.166151
      6          1           0       -1.826384   -1.021588    1.494959
      7          6           0       -1.215378    0.744996    0.394476
      8          1           0       -1.188719    1.422850    1.307879
      9          8           0       -1.676315    1.434401   -0.745707
     10          1           0       -1.055656    2.143329   -0.883327
     11          6           0        0.204649    0.246079    0.198903
     12          6           0        0.546360   -1.094840    0.052016
     13          6           0        1.212575    1.216973    0.185968
     14          6           0        1.881031   -1.460233   -0.116140
     15          1           0       -0.210007   -1.895213    0.071476
     16          6           0        2.541359    0.849512    0.015517
     17          1           0        0.958745    2.282275    0.319639
     18          6           0        2.878607   -0.493040   -0.138299
     19          1           0        2.143632   -2.522254   -0.233240
     20          1           0        3.326839    1.619612    0.004353
     21          1           0        3.930130   -0.785723   -0.274064
 ---------------------------------------------------------------------

 SCF Done:  E(RPDDG) = -0.334277761685E-01 A.U. after    2 cycles

 The electronic state is 1-A.
 Alpha  occ. eigenvalues --   -1.53590  -1.39348  -1.23909  -1.12463  -1.09963
 Alpha  occ. eigenvalues --   -0.95329  -0.82907  -0.80969  -0.75229  -0.70020
 Alpha  occ. eigenvalues --   -0.64772  -0.61624  -0.59237  -0.58404  -0.56789
 Alpha  occ. eigenvalues --   -0.56010  -0.54255  -0.51702  -0.49740  -0.48719
 Alpha  occ. eigenvalues --   -0.48274  -0.46740  -0.44698  -0.41275  -0.36770
 Alpha  occ. eigenvalues --   -0.36187  -0.34218
 Alpha virt. eigenvalues --    0.00314   0.00578   0.08467   0.09391   0.10398
 Alpha virt. eigenvalues --    0.10603   0.10943   0.11366   0.12917   0.13355
 Alpha virt. eigenvalues --    0.14109   0.14409   0.14917   0.16071   0.16906

 Mulliken charges:
               1
     1  N   -0.104093
     2  H    0.057825
     3  H    0.071614
     4  C   -0.215468
     5  H    0.109234
     6  H    0.093068
     7  C    0.079382
     8  H    0.098165
     9  O   -0.301862
    10  H    0.204621
    11  C   -0.125352
    12  C   -0.140884
    13  C   -0.160125
    14  C   -0.148590
    15  H    0.156551
    16  C   -0.143725
    17  H    0.154480
    18  C   -0.151745
    19  H    0.155086
    20  H    0.155643
    21  H    0.156176
 Sum of Mulliken charges =   0.00000

 Dipole moment (field-independent basis, Debye):
    X=              2.5803    Y=             -0.4344    Z=              1.6583  Tot=              3.0978
 N-N= 2.980619135973D+02 E-N=-4.684012774702D+02  KE=-9.005102810352D+01
  Exact polarizability: 102.878   2.026  93.207  -7.142   4.342  36.230
 Approx polarizability:  72.635   1.656  72.045  -4.886   3.373  25.022
 Leave Link  601 at Sat Dec  2 17:54:37 2017, MaxMem=   402653184 cpu:               1.0 elap:               0.3
 (Enter /n/sw/g16_nehalem/g16/l701.exe)
 ... and contract with generalized density number  0.
 Compute integral second derivatives.
 D2PCM: PCM CHGder 2nd derivatives, FixD1E=F FixD2E=F DoIter=F DoCFld=F I1PDM=0
 GePol: Maximum number of non-zero 2nd derivatives   =     188
 Leave Link  701 at Sat Dec  2 17:54:42 2017, MaxMem=   402653184 cpu:              18.4 elap:               5.6

                      1                      2                      3
                      A                      A                      A
 Frequencies --     54.9640                93.9459               132.9309
 Red. masses --      3.7224                 1.7962                 4.0191
 Frc consts  --      0.0066                 0.0093                 0.0418
 IR Inten    --      0.5798                31.1043                 3.3509

                      4                      5                      6
                      A                      A                      A
 Frequencies --    257.3176               271.7177               311.1951
 Red. masses --      1.7127                 3.3515                 1.7322
 Frc consts  --      0.0668                 0.1458                 0.0988
 IR Inten    --     24.5514                 9.9483                98.9848

                      7                      8                      9
                      A                      A                      A
 Frequencies --    327.7268               358.7607               394.4430
 Red. masses --      3.7679                 2.8052                 1.9546
 Frc consts  --      0.2384                 0.2127                 0.1792
 IR Inten    --      2.0074                 3.0906                20.7051

                     10                     11                     12
                      A                      A                      A
 Frequencies --    411.3641               507.6987               574.6736
 Red. masses --      2.5785                 3.0973                 3.2516
 Frc consts  --      0.2571                 0.4704                 0.6327
 IR Inten    --     26.2937                 4.4197                 5.3158

                     13                     14                     15
                      A                      A                      A
 Frequencies --    640.6448               655.6559               727.9152
 Red. masses --      5.9714                 2.2656                 2.2089
 Frc consts  --      1.4440                 0.5738                 0.6896
 IR Inten    --      0.5330                22.2029                49.0179

                     16                     17                     18
                      A                      A                      A
 Frequencies --    783.7041               819.8972               859.8425
 Red. masses --      1.6419                 2.5876                 1.2518
 Frc consts  --      0.5942                 1.0249                 0.5453
 IR Inten    --     64.0546                 1.5043                 0.4286

                     19                     20                     21
                      A                      A                      A
 Frequencies --    897.5754               940.1463               945.9866
 Red. masses --      1.5341                 1.6111                 1.6261
 Frc consts  --      0.7282                 0.8390                 0.8574
 IR Inten    --     11.9838                 5.7067                15.1312

                     22                     23                     24
                      A                      A                      A
 Frequencies --    975.2718               998.4459              1029.3323
 Red. masses --      1.5144                 1.9213                 2.3732
 Frc consts  --      0.8487                 1.1285                 1.4815
 IR Inten    --      2.1062                 3.8227                 1.6895

                     25                     26                     27
                      A                      A                      A
 Frequencies --   1065.7510              1076.7659              1083.2362
 Red. masses --      1.2484                 1.3317                 1.2042
 Frc consts  --      0.8355                 0.9097                 0.8325
 IR Inten    --      5.2932                 0.6730                 4.8394

                     28                     29                     30
                      A                      A                      A
 Frequencies --   1092.2721              1119.6288              1126.5667
 Red. masses --      1.1891                 1.1187                 1.5439
 Frc consts  --      0.8358                 0.8262                 1.1545
 IR Inten    --      5.6702                 4.6824                24.6428

                     31                     32                     33
                      A                      A                      A
 Frequencies --   1135.3364              1159.6751              1194.5151
 Red. masses --      1.4407                 1.2478                 1.1051
 Frc consts  --      1.0941                 0.9887                 0.9290
 IR Inten    --     11.2601                13.9827                 0.7364

                     34                     35                     36
                      A                      A                      A
 Frequencies --   1234.6019              1276.0142              1308.7921
 Red. masses --      1.7139                 1.3654                 2.2572
 Frc consts  --      1.5391                 1.3099                 2.2780
 IR Inten    --      8.5788                 5.8358                12.9727

                     37                     38                     39
                      A                      A                      A
 Frequencies --   1327.3441              1344.2766              1356.9400
 Red. masses --      2.5063                 2.4615                 1.4768
 Frc consts  --      2.6016                 2.6207                 1.6022
 IR Inten    --      2.3472                20.9774                 7.4075

                     40                     41                     42
                      A                      A                      A
 Frequencies --   1369.7549              1456.2355              1548.6187
 Red. masses --      2.4123                 1.8326                 4.7692
 Frc consts  --      2.6666                 2.2897                 6.7388
 IR Inten    --     20.7237                78.2729                19.5496

                     43                     44                     45
                      A                      A                      A
 Frequencies --   1609.1497              1649.1988              1796.9751
 Red. masses --      4.9875                 1.1316                 9.2193
 Frc consts  --      7.6090                 1.8134                17.5401
 IR Inten    --      1.4372                11.0702                 0.0532

                     46                     47                     48
                      A                      A                      A
 Frequencies --   1814.7545              2618.8262              2823.2174
 Red. masses --      9.3607                 1.0930                 1.0866
 Frc consts  --     18.1633                 4.4165                 5.1030
 IR Inten    --      0.0980                 0.7799                 1.5999

                     49                     50                     51
                      A                      A                      A
 Frequencies --   2856.7868              2944.9447              2954.9421
 Red. masses --      1.0809                 1.0962                 1.0960
 Frc consts  --      5.1975                 5.6016                 5.6384
 IR Inten    --      9.4762                34.6341                23.4223

                     52                     53                     54
                      A                      A                      A
 Frequencies --   2965.1605              2970.9671              2983.4306
 Red. masses --      1.0957                 1.1001                 1.1085
 Frc consts  --      5.6758                 5.7210                 5.8135
 IR Inten    --     17.6139               123.9381                56.5382

                     55                     56                     57
                      A                      A                      A
 Frequencies --   3351.6147              3491.8803              3785.9551
 Red. masses --      1.0994                 1.0422                 1.0667
 Frc consts  --      7.2763                 7.4873                 9.0083
 IR Inten    --      0.4534                 8.1003                14.2653

 - Thermochemistry -
 -------------------
 Temperature   298.150 Kelvin.  Pressure   1.00000 Atm.
 Atom     1 has atomic number  7 and mass  14.00307

 Molecular mass:   137.08406 amu.
 Principal axes and moments of inertia in atomic units:
                           1         2         3
     Eigenvalues --   672.066272003.668392468.25854
           X            0.99984   0.01492  -0.01033
           Y           -0.01478   0.99981   0.01292
           Z            0.01052  -0.01276   0.99986
 This molecule is an asymmetric top.
 Rotational symmetry number  1.
 Warning -- assumption of classical behavior for rotation
           may cause significant error
 Rotational temperatures (Kelvin)      0.12888     0.04323     0.03509
 Rotational constants (GHZ):           2.68536     0.90072     0.73118
 Zero-point vibrational energy     459756.5 (Joules/Mol)
                                  109.88444 (Kcal/Mol)
 Warning -- explicit consideration of  12 degrees of freedom as
           vibrations may cause significant error
 Vibrational temperatures:     79.08   135.17   191.26   370.22   390.94
          (Kelvin)            447.74   471.53   516.18   567.52   591.86
                              730.47   826.83   921.75   943.34  1047.31
                             1127.58  1179.65  1237.12  1291.41  1352.66
                             1361.06  1403.20  1436.54  1480.98  1533.38
                             1549.23  1558.54  1571.54  1610.90  1620.88
                             1633.50  1668.51  1718.64  1776.32  1835.90
                             1883.06  1909.75  1934.11  1952.33  1970.77
                             2095.20  2228.12  2315.21  2372.83  2585.45
                             2611.03  3767.91  4061.98  4110.28  4237.12
                             4251.50  4266.20  4274.56  4292.49  4822.23
                             5024.04  5447.14

 Zero-point correction=                           0.175112 (Hartree/Particle)
 Thermal correction to Energy=                    0.184426
 Thermal correction to Enthalpy=                  0.185370
 Thermal correction to Gibbs Free Energy=         0.140506
 Sum of electronic and zero-point Energies=              0.141684
 Sum of electronic and thermal Energies=                 0.150998
 Sum of electronic and thermal Enthalpies=               0.151942
 Sum of electronic and thermal Free Energies=            0.107078

                     E (Thermal)             CV                S
                      KCal/Mol        Cal/Mol-Kelvin    Cal/Mol-Kelvin
 Total                  115.729             36.073             94.425
 Electronic               0.000              0.000              0.000
 Translational            0.889              2.981             40.658
 Rotational               0.889              2.981             29.587
 Vibrational            113.952             30.111             24.180
 Vibration     1          0.596              1.976              4.630
 Vibration     2          0.603              1.954              3.576
 Vibration     3          0.613              1.920              2.903
 Vibration     4          0.667              1.750              1.680
 Vibration     5          0.675              1.725              1.585
 Vibration     6          0.700              1.652              1.356
 Vibration     7          0.711              1.620              1.271
 Vibration     8          0.734              1.557              1.127
 Vibration     9          0.761              1.482              0.983
 Vibration    10          0.775              1.446              0.922
 Vibration    11          0.863              1.233              0.639
 Vibration    12          0.931              1.086              0.495

 Optimization completed.
    -- Stationary point found.
 Normal termination of Gaussian 16 at Sat Dec  2 17:54:45 2017.
