 Gaussian 16, Revision A.03,
 Gaussian 16:  ES64L-G16RevA.03 25-Dec-2016

 ------------------------
 #p pddg opt freq=noraman
 ------------------------

 --------
 diMe cat
 --------
 Symbolic Z-matrix:
 Charge =  0 Multiplicity = 1

 SCF Done:  E(RPDDG) =  0.115800583408     A.U. after   15 cycles
 SCF Done:  E(RPDDG) =  0.153514555283E-01 A.U. after   14 cycles
 SCF Done:  E(RPDDG) =  0.104837097953E-01 A.U. after   15 cycles
 SCF Done:  E(RPDDG) = -0.306015939941E-03 A.U. after   14 cycles
 SCF Done:  E(RPDDG) =  0.229051988686E-02 A.U. after   13 cycles
 SCF Done:  E(RPDDG) = -0.864616127615E-03 A.U. after   14 cycles
 SCF Done:  E(RPDDG) = -0.307748051728E-02 A.U. after   14 cycles
 SCF Done:  E(RPDDG) = -0.512644929597E-02 A.U. after   14 cycles
 SCF Done:  E(RPDDG) = -0.597382715421E-02 A.U. after   12 cycles
 SCF Done:  E(RPDDG) = -0.639906666049E-02 A.U. after   13 cycles
 SCF Done:  E(RPDDG) = -0.907962252859E-02 A.U. after   13 cycles
 SCF Done:  E(RPDDG) = -0.947368045524E-02 A.U. after   13 cycles
 SCF Done:  E(RPDDG) = -0.954526448811E-02 A.U. after   13 cycles
 SCF Done:  E(RPDDG) = -0.942944483745E-02 A.U. after   14 cycles
 SCF Done:  E(RPDDG) = -0.969695144465E-02 A.U. after   13 cycles
 SCF Done:  E(RPDDG) = -0.970740227103E-02 A.U. after   10 cycles
 SCF Done:  E(RPDDG) = -0.970961843450E-02 A.U. after   10 cycles
 SCF Done:  E(RPDDG) = -0.971007408327E-02 A.U. after   10 cycles
 SCF Done:  E(RPDDG) = -0.971022854412E-02 A.U. after    9 cycles
 Optimization completed.
    -- Stationary point found.
 Normal termination of Gaussian 16 at Wed Dec  6 21:21:46 2017.

 --------------------------------------------------------------
 #P Geom=AllCheck Guess=TCheck SCRF=Check GenChk RPDDG/ZDO Freq
 --------------------------------------------------------------

 Structure from the checkpoint file:  "/scratch/dhuang9_cat3_dime_isolated/Gau-111500.chk"
 --------
 diMe cat
 --------
 Charge =  0 Multiplicity = 1

                         Standard orientation:
 ---------------------------------------------------------------------
 Center     Atomic      Atomic             Coordinates (Angstroms)
 Number     Number       Type             X           Y           Z
 ---------------------------------------------------------------------
      1          7           0       -3.056361   -0.930536   -0.764246
      2          1           0       -2.355274   -0.814576   -1.458432
      3          6           0       -2.947206    0.070675    0.332310
      4          1           0       -3.983665    0.513922    0.382375
      5          6           0       -1.968427    1.241100    0.034390
      6          1           0       -2.153683    2.003720    0.862237
      7          8           0       -2.349488    1.759817   -1.222937
      8          1           0       -1.787840    2.514842   -1.367806
      9          6           0       -0.478867    0.947151    0.051610
     10          6           0        0.087395   -0.294328   -0.070426
     11          6           0        0.357524    2.092936    0.185872
     12          6           0        1.502580   -0.437226   -0.054656
     13          1           0       -0.515117   -1.214434   -0.170757
     14          6           0        1.719784    1.975692    0.200295
     15          1           0       -0.104593    3.090009    0.282598
     16          6           0        2.099498   -1.720341   -0.176108
     17          6           0        2.320928    0.694574    0.079571
     18          1           0        2.362718    2.864386    0.305137
     19          6           0        3.464365   -1.842510   -0.161087
     20          1           0        1.455244   -2.607770   -0.283277
     21          6           0        3.732477    0.547450    0.093483
     22          6           0        4.287916   -0.699759   -0.024950
     23          1           0        3.935095   -2.831878   -0.255442
     24          1           0        4.366182    1.442399    0.199274
     25          1           0        5.380253   -0.826034   -0.016050
     26          6           0       -3.100410   -2.344417   -0.355019
     27          1           0       -3.233067   -2.975083   -1.244401
     28          1           0       -2.204993   -2.705700    0.179681
     29          1           0       -3.962353   -2.533177    0.301207
     30          6           0       -2.633654   -0.493717    1.716861
     31          1           0       -2.569349    0.311131    2.460884
     32          1           0       -3.417627   -1.175482    2.072214
     33          1           0       -1.684923   -1.044740    1.770905
 ---------------------------------------------------------------------

 SCF Done:  E(RPDDG) = -0.971022854628E-02 A.U. after    2 cycles

 The electronic state is 1-A.
 Alpha  occ. eigenvalues --   -1.57059  -1.46940  -1.32691  -1.30979  -1.18473
 Alpha  occ. eigenvalues --   -1.13286  -1.07440  -1.03476  -0.96178  -0.88459
 Alpha  occ. eigenvalues --   -0.82610  -0.80769  -0.79372  -0.72264  -0.67422
 Alpha  occ. eigenvalues --   -0.67111  -0.64936  -0.63098  -0.60436  -0.59882
 Alpha  occ. eigenvalues --   -0.57697  -0.56195  -0.55549  -0.54741  -0.54305
 Alpha  occ. eigenvalues --   -0.53276  -0.52534  -0.51343  -0.50679  -0.49041
 Alpha  occ. eigenvalues --   -0.48622  -0.47066  -0.46470  -0.45774  -0.45061
 Alpha  occ. eigenvalues --   -0.44102  -0.43218  -0.40859  -0.39732  -0.35024
 Alpha  occ. eigenvalues --   -0.33098  -0.32437
 Alpha virt. eigenvalues --   -0.02139  -0.00358   0.03361   0.06500   0.08234
 Alpha virt. eigenvalues --    0.09275   0.09756   0.10284   0.10725   0.10985
 Alpha virt. eigenvalues --    0.11329   0.11558   0.11912   0.13200   0.13646

 Mulliken charges:
               1
     1  N   -0.073269
     2  H    0.093510
     3  C   -0.097520
     4  H    0.122687
     5  C    0.062989
     6  H    0.094877
     7  O   -0.299011
     8  H    0.201105
     9  C   -0.115656
    10  C   -0.125059
    11  C   -0.162914
    12  C   -0.032871
    13  H    0.163231
    14  C   -0.126028
    15  H    0.149265
    16  C   -0.137742
    17  C   -0.037805
    18  H    0.153623
    19  C   -0.144622
    20  H    0.152498
    21  C   -0.133884
    22  C   -0.146725
    23  H    0.151045
    24  H    0.153088
    25  H    0.151225
    26  C   -0.272616
    27  H    0.096585
    28  H    0.069781
    29  H    0.096591
    30  C   -0.305423
    31  H    0.097477
    32  H    0.100597
    33  H    0.100971
 Sum of Mulliken charges =   0.00000

 Dipole moment (field-independent basis, Debye):
    X=              2.3035    Y=              0.1517    Z=              1.7104  Tot=              2.8730
 N-N= 5.879605933030D+02 E-N=-9.823526046037D+02  KE=-1.349938967797D+02
  Exact polarizability: 174.367 -14.623 145.786  -0.650   8.584  53.725
 Approx polarizability: 135.620 -11.637 128.457   0.705   8.271  39.974
 Leave Link  601 at Wed Dec  6 21:21:47 2017, MaxMem=   402653184 cpu:               0.1 elap:               0.0
 (Enter /n/sw/g16_nehalem/g16/l701.exe)
 ... and contract with generalized density number  0.
 Compute integral second derivatives.
 Leave Link  701 at Wed Dec  6 21:21:47 2017, MaxMem=   402653184 cpu:               0.3 elap:               0.1
 (Enter /n/sw/g16_nehalem/g16/l702.exe)
 L702 exits ... SP integral derivatives will be done elsewhere.

                      1                      2                      3
                      A                      A                      A
 Frequencies --     47.2283                65.7837               106.2068
 Red. masses --      3.8087                 4.0781                 3.0402
 Frc consts  --      0.0050                 0.0104                 0.0202
 IR Inten    --      0.4547                 0.4283                 0.2553

                      4                      5                      6
                      A                      A                      A
 Frequencies --    140.3929               172.9342               194.3434
 Red. masses --      2.9809                 3.7257                 1.4420
 Frc consts  --      0.0346                 0.0656                 0.0321
 IR Inten    --      0.7580                 0.7446                 1.4490

                      7                      8                      9
                      A                      A                      A
 Frequencies --    199.5745               229.3903               263.8905
 Red. masses --      4.6365                 2.3139                 4.5837
 Frc consts  --      0.1088                 0.0717                 0.1881
 IR Inten    --      3.5142                 3.7798                 0.3256

                     10                     11                     12
                      A                      A                      A
 Frequencies --    290.7890               335.4727               359.6970
 Red. masses --      3.5010                 1.8850                 2.5849
 Frc consts  --      0.1744                 0.1250                 0.1970
 IR Inten    --      7.2531                80.0286                 4.4655

                     13                     14                     15
                      A                      A                      A
 Frequencies --    379.0562               393.0532               444.3884
 Red. masses --      1.5863                 1.4092                 2.9492
 Frc consts  --      0.1343                 0.1283                 0.3431
 IR Inten    --     29.5323                 9.5290                 1.7738

                     16                     17                     18
                      A                      A                      A
 Frequencies --    459.0276               469.3618               478.0468
 Red. masses --      3.7296                 2.5662                 3.2933
 Frc consts  --      0.4630                 0.3331                 0.4434
 IR Inten    --      1.4858                11.6403                 8.9838

                     19                     20                     21
                      A                      A                      A
 Frequencies --    480.9950               534.8471               545.5073
 Red. masses --      3.2369                 2.8237                 6.8321
 Frc consts  --      0.4412                 0.4759                 1.1979
 IR Inten    --      4.5152                 0.1132                 0.3528

                     22                     23                     24
                      A                      A                      A
 Frequencies --    584.8880               639.9173               661.4024
 Red. masses --      3.2745                 4.8842                 2.9981
 Frc consts  --      0.6600                 1.1784                 0.7727
 IR Inten    --      1.1295                 7.0830                13.0938

                     25                     26                     27
                      A                      A                      A
 Frequencies --    695.1573               745.3786               766.4582
 Red. masses --      4.2204                 2.2585                 2.1438
 Frc consts  --      1.2016                 0.7393                 0.7420
 IR Inten    --      0.0997                 2.9187                 7.5887

                     28                     29                     30
                      A                      A                      A
 Frequencies --    781.8438               840.2350               860.0601
 Red. masses --      1.6195                 1.4600                 1.6043
 Frc consts  --      0.5833                 0.6073                 0.6992
 IR Inten    --     74.7380                 7.2861                57.7240

                     31                     32                     33
                      A                      A                      A
 Frequencies --    876.3986               892.3718               906.0624
 Red. masses --      1.5175                 1.7603                 3.1768
 Frc consts  --      0.6867                 0.8259                 1.5366
 IR Inten    --     46.4346                 2.6862                 0.5410

                     34                     35                     36
                      A                      A                      A
 Frequencies --    949.6737               958.8305               964.4378
 Red. masses --      1.5075                 2.6125                 1.5778
 Frc consts  --      0.8010                 1.4151                 0.8646
 IR Inten    --      1.5160                 6.8089                 8.0852

                     37                     38                     39
                      A                      A                      A
 Frequencies --    976.7397               982.4522               990.8002
 Red. masses --      1.6593                 1.7713                 1.6701
 Frc consts  --      0.9327                 1.0073                 0.9660
 IR Inten    --      3.3949                 6.5673                 4.0395

                     40                     41                     42
                      A                      A                      A
 Frequencies --   1000.5517              1041.4882              1054.1392
 Red. masses --      1.5265                 1.5709                 1.3461
 Frc consts  --      0.9004                 1.0039                 0.8813
 IR Inten    --     11.7423                 6.2650                 9.1586

                     43                     44                     45
                      A                      A                      A
 Frequencies --   1058.2706              1091.4083              1098.6798
 Red. masses --      1.5649                 1.2918                 1.2027
 Frc consts  --      1.0326                 0.9066                 0.8554
 IR Inten    --      5.5038                 1.0042                 5.8809

                     46                     47                     48
                      A                      A                      A
 Frequencies --   1100.2649              1118.1932              1137.2516
 Red. masses --      1.1508                 1.3684                 1.1864
 Frc consts  --      0.8208                 1.0081                 0.9041
 IR Inten    --      1.5211                 7.8179                 2.4268

                     49                     50                     51
                      A                      A                      A
 Frequencies --   1139.1004              1146.3004              1187.7590
 Red. masses --      1.9443                 1.3768                 1.2967
 Frc consts  --      1.4864                 1.0659                 1.0779
 IR Inten    --     17.8777                 2.8110                 2.1272

                     52                     53                     54
                      A                      A                      A
 Frequencies --   1196.0480              1208.8769              1247.9262
 Red. masses --      1.4152                 1.1879                 1.9964
 Frc consts  --      1.1928                 1.0228                 1.8318
 IR Inten    --      4.1589                 2.5097                 1.7451

                     55                     56                     57
                      A                      A                      A
 Frequencies --   1260.4414              1282.0304              1285.4072
 Red. masses --      2.0731                 1.0983                 3.4582
 Frc consts  --      1.9405                 1.0636                 3.3665
 IR Inten    --      5.9333                 1.4803                17.1927

                     58                     59                     60
                      A                      A                      A
 Frequencies --   1314.5178              1323.3827              1331.9855
 Red. masses --      1.2668                 1.2826                 1.1530
 Frc consts  --      1.2897                 1.3234                 1.2052
 IR Inten    --     16.7197                12.7926                 4.6549

                     61                     62                     63
                      A                      A                      A
 Frequencies --   1338.7382              1349.4225              1378.6451
 Red. masses --      1.6387                 1.1871                 1.6071
 Frc consts  --      1.7303                 1.2736                 1.7997
 IR Inten    --      2.2269                 6.4901                 5.7600

                     64                     65                     66
                      A                      A                      A
 Frequencies --   1402.7859              1425.7083              1433.1934
 Red. masses --      1.2609                 1.6676                 3.0394
 Frc consts  --      1.4619                 1.9971                 3.6783
 IR Inten    --      3.0677                69.5125                20.9725

                     67                     68                     69
                      A                      A                      A
 Frequencies --   1442.1940              1461.4993              1477.6905
 Red. masses --      1.4988                 1.4842                 3.8124
 Frc consts  --      1.8367                 1.8678                 4.9047
 IR Inten    --      6.3755                 3.9298                 1.5214

                     70                     71                     72
                      A                      A                      A
 Frequencies --   1531.3522              1611.7122              1637.1127
 Red. masses --      3.9686                 8.6704                 8.2715
 Frc consts  --      5.4832                13.2698                13.0614
 IR Inten    --      2.3700                 0.0333                 3.9199

                     73                     74                     75
                      A                      A                      A
 Frequencies --   1693.8998              1809.2087              1818.5797
 Red. masses --      8.3167                 9.5686                 8.9829
 Frc consts  --     14.0597                18.4533                17.5037
 IR Inten    --      3.9801                 0.1072                 3.7509

                     76                     77                     78
                      A                      A                      A
 Frequencies --   1855.6039              2594.7235              2717.2908
 Red. masses --      9.5337                 1.0927                 1.0890
 Frc consts  --     19.3411                 4.3344                 4.7376
 IR Inten    --      0.9345                 0.5493                 7.3236

                     79                     80                     81
                      A                      A                      A
 Frequencies --   2930.8648              2941.6502              2956.4374
 Red. masses --      1.0733                 1.0938                 1.0940
 Frc consts  --      5.4318                 5.5766                 5.6336
 IR Inten    --      0.5968                28.1221                36.9645

                     82                     83                     84
                      A                      A                      A
 Frequencies --   2958.4476              2963.4179              2966.5915
 Red. masses --      1.0940                 1.0996                 1.0968
 Frc consts  --      5.6415                 5.6894                 5.6870
 IR Inten    --     22.4416                82.7611                12.0547

                     85                     86                     87
                      A                      A                      A
 Frequencies --   2970.7372              2972.0608              2982.4609
 Red. masses --      1.1009                 1.0841                 1.1072
 Frc consts  --      5.7244                 5.6421                 5.8029
 IR Inten    --     50.3282                 6.5700                78.2844

                     88                     89                     90
                      A                      A                      A
 Frequencies --   2983.9202              3016.7727              3023.2190
 Red. masses --      1.0831                 1.1003                 1.0980
 Frc consts  --      5.6820                 5.8998                 5.9126
 IR Inten    --      7.4252                 5.1557                 8.6202

                     91                     92                     93
                      A                      A                      A
 Frequencies --   3040.5021              3284.5188              3784.7303
 Red. masses --      1.0360                 1.0796                 1.0670
 Frc consts  --      5.6426                 6.8619                 9.0049
 IR Inten    --      3.7626                 8.6126                11.5566

 - Thermochemistry -
 -------------------
 Temperature   298.150 Kelvin.  Pressure   1.00000 Atm.
 Atom     1 has atomic number  7 and mass  14.00307

 Molecular mass:   215.13101 amu.
 Principal axes and moments of inertia in atomic units:
                           1         2         3
     Eigenvalues --  1857.466185468.262886664.16469
           X            0.99984   0.01568  -0.00840
           Y           -0.01563   0.99986   0.00611
           Z            0.00850  -0.00598   0.99995
 This molecule is an asymmetric top.
 Rotational symmetry number  1.
 Warning -- assumption of classical behavior for rotation
           may cause significant error
 Rotational temperatures (Kelvin)      0.04663     0.01584     0.01300
 Rotational constants (GHZ):           0.97161     0.33004     0.27081
 Zero-point vibrational energy     729978.1 (Joules/Mol)
                                  174.46896 (Kcal/Mol)
 Warning -- explicit consideration of  22 degrees of freedom as
           vibrations may cause significant error
 Vibrational temperatures:     67.95    94.65   152.81   201.99   248.81
          (Kelvin)            279.62   287.14   330.04   379.68   418.38
                              482.67   517.52   545.38   565.52   639.38
                              660.44   675.31   687.80   692.04   769.53
                              784.86   841.52   920.70   951.61  1000.18
                             1072.43  1102.76  1124.90  1208.91  1237.43
                             1260.94  1283.92  1303.62  1366.37  1379.54
                             1387.61  1405.31  1413.53  1425.54  1439.57
                             1498.47  1516.67  1522.62  1570.29  1580.76
                             1583.04  1608.83  1636.25  1638.91  1649.27
                             1708.92  1720.85  1739.30  1795.49  1813.49
                             1844.56  1849.41  1891.30  1904.05  1916.43
                             1926.15  1941.52  1983.56  2018.30  2051.28
                             2062.05  2075.00  2102.77  2126.07  2203.27
                             2318.89  2355.44  2437.14  2603.05  2616.53
                             2669.80  3733.23  3909.58  4216.86  4232.38
                             4253.65  4256.55  4263.70  4268.26  4274.23
                             4276.13  4291.10  4293.20  4340.46  4349.74
                             4374.60  4725.69  5445.38

 Zero-point correction=                           0.278034 (Hartree/Particle)
 Thermal correction to Energy=                    0.291931
 Thermal correction to Enthalpy=                  0.292875
 Thermal correction to Gibbs Free Energy=         0.237854
 Sum of electronic and zero-point Energies=              0.268324
 Sum of electronic and thermal Energies=                 0.282220
 Sum of electronic and thermal Enthalpies=               0.283164
 Sum of electronic and thermal Free Energies=            0.228144

                     E (Thermal)             CV                S
                      KCal/Mol        Cal/Mol-Kelvin    Cal/Mol-Kelvin
 Total                  183.189             56.787            115.801
 Electronic               0.000              0.000              0.000
 Translational            0.889              2.981             42.002
 Rotational               0.889              2.981             32.582
 Vibrational            181.412             50.825             41.218
 Vibration     1          0.595              1.979              4.930
 Vibration     2          0.597              1.971              4.276
 Vibration     3          0.605              1.944              3.337
 Vibration     4          0.615              1.913              2.799
 Vibration     5          0.626              1.876              2.403
 Vibration     6          0.635              1.848              2.186
 Vibration     7          0.638              1.840              2.137
 Vibration     8          0.652              1.796              1.884
 Vibration     9          0.670              1.739              1.636
 Vibration    10          0.687              1.691              1.469
 Vibration    11          0.717              1.605              1.234
 Vibration    12          0.734              1.555              1.123
 Vibration    13          0.749              1.515              1.043
 Vibration    14          0.760              1.485              0.989
 Vibration    15          0.804              1.373              0.813
 Vibration    16          0.817              1.341              0.769
 Vibration    17          0.826              1.318              0.739
 Vibration    18          0.835              1.299              0.715
 Vibration    19          0.837              1.292              0.707
 Vibration    20          0.890              1.173              0.576
 Vibration    21          0.901              1.150              0.554
 Vibration    22          0.942              1.064              0.476

                           ! Non-Optimized Parameters !
 Normal termination of Gaussian 16 at Wed Dec  6 21:21:47 2017.
