 Gaussian 16, Revision A.03,
 Gaussian 16:  ES64L-G16RevA.03 25-Dec-2016

 ----------------------------------------------------------------------
 #p b3lyp empiricaldispersion=gd3bj 6-31g scrf=(pcm,solvent=benzene) op
 t freq=noraman
 ----------------------------------------------------------------------

 ------
 Me cat
 ------
 Symbolic Z-matrix:
 Charge =  0 Multiplicity = 1

 SCF Done:  E(RB3LYP) =  -634.230964290     A.U. after   13 cycles
 SCF Done:  E(RB3LYP) =  -634.263382443     A.U. after   13 cycles
 SCF Done:  E(RB3LYP) =  -634.268941052     A.U. after   12 cycles
 SCF Done:  E(RB3LYP) =  -634.272228265     A.U. after   12 cycles
 SCF Done:  E(RB3LYP) =  -634.274019034     A.U. after   11 cycles
 SCF Done:  E(RB3LYP) =  -634.276134924     A.U. after   11 cycles
 SCF Done:  E(RB3LYP) =  -634.277426717     A.U. after   13 cycles
 SCF Done:  E(RB3LYP) =  -634.278890096     A.U. after   13 cycles
 SCF Done:  E(RB3LYP) =  -634.280337629     A.U. after   13 cycles
 SCF Done:  E(RB3LYP) =  -634.281799258     A.U. after   10 cycles
 SCF Done:  E(RB3LYP) =  -634.285283505     A.U. after   11 cycles
 SCF Done:  E(RB3LYP) =  -634.285298651     A.U. after   10 cycles
 SCF Done:  E(RB3LYP) =  -634.285302037     A.U. after   10 cycles
 SCF Done:  E(RB3LYP) =  -634.285344994     A.U. after   10 cycles
 SCF Done:  E(RB3LYP) =  -634.285352074     A.U. after   10 cycles
 SCF Done:  E(RB3LYP) =  -634.285354552     A.U. after    8 cycles
 SCF Done:  E(RB3LYP) =  -634.285356071     A.U. after    9 cycles
 SCF Done:  E(RB3LYP) =  -634.285356239     A.U. after    8 cycles
 SCF Done:  E(RB3LYP) =  -634.285356315     A.U. after    7 cycles
 Optimization completed.
    -- Stationary point found.

 1\1\GINC-HOLY7C07209\FOpt\RB3LYP\6-31G\C13H15N1O1\ROOT\07-Dec-2017\0\\
 #p b3lyp empiricaldispersion=gd3bj 6-31g scrf=(pcm,solvent=benzene) op
 t freq=noraman\\Me cat\\0,1\N,0.7214478941,-0.5348582895,3.7256137321\
 H,1.2081109616,-1.2573385928,3.2033823551\C,-0.596270917,-0.2892818726
 ,3.1563035493\H,-1.295625644,-1.1360658458,3.3020322451\C,-0.499857061
 6,-0.0085158701,1.6507360599\H,-1.5231683089,0.0418060886,1.2509319847
 \O,0.1808696504,-1.1797149785,1.0927213446\H,0.4034672195,-1.013954142
 4,0.1550007203\C,0.2155186041,1.2829056492,1.3180138263\C,1.5919000708

 Normal termination of Gaussian 16 at Thu Dec  7 00:23:02 2017.

 -----------------------------------------------------------------
 #P Geom=AllCheck Guess=TCheck SCRF=Check GenChk RB3LYP/6-31G Freq
 -----------------------------------------------------------------

 Structure from the checkpoint file:  "/scratch/dhuang9_cat3_nme_isolated_b3lyp_d3bj_631g/Gau-55236.chk"
 ------
 Me cat
 ------
 Charge =  0 Multiplicity = 1

                         Standard orientation:
 ---------------------------------------------------------------------
 Center     Atomic      Atomic             Coordinates (Angstroms)
 Number     Number       Type             X           Y           Z
 ---------------------------------------------------------------------
      1          7           0        2.909238    1.069269    0.443536
      2          1           0        3.023117    1.456061   -0.488649
      3          6           0        3.072116   -0.377737    0.422355
      4          1           0        4.112420   -0.693337    0.208950
      5          6           0        2.157712   -1.017447   -0.630972
      6          1           0        2.411699   -2.085656   -0.693917
      7          8           0        2.516612   -0.359493   -1.889846
      8          1           0        1.880106   -0.615297   -2.586818
      9          6           0        0.683338   -0.886639   -0.315781
     10          6           0       -0.036987    0.236669   -0.676111
     11          6           0        0.034064   -1.932705    0.397254
     12          6           0       -1.413861    0.365257   -0.348426
     13          1           0        0.456881    1.041263   -1.208032
     14          6           0       -1.298914   -1.838161    0.736412
     15          1           0        0.603697   -2.816173    0.671961
     16          6           0       -2.172758    1.513591   -0.711996
     17          6           0       -2.062369   -0.693066    0.375117
     18          1           0       -1.786666   -2.642635    1.278771
     19          6           0       -3.508517    1.612851   -0.378995
     20          1           0       -1.678473    2.313469   -1.255228
     21          6           0       -3.440980   -0.561054    0.701999
     22          6           0       -4.149175    0.565366    0.334231
     23          1           0       -4.076479    2.493402   -0.660526
     24          1           0       -3.926935   -1.363815    1.248742
     25          1           0       -5.199733    0.656552    0.589568
     26          6           0        3.679159    1.769606    1.468416
     27          1           0        3.511176    2.846951    1.379820
     28          1           0        3.338237    1.457757    2.462848
     29          1           0        4.770304    1.586622    1.419051
     30          1           0        2.806123   -0.783286    1.406470
 ---------------------------------------------------------------------

 SCF Done:  E(RB3LYP) =  -634.285356315     A.U. after    1 cycles

 The electronic state is 1-A.
 Alpha  occ. eigenvalues --  -19.14495 -14.30245 -10.24112 -10.20342 -10.19557
 Alpha  occ. eigenvalues --  -10.19516 -10.19299 -10.19225 -10.18850 -10.18780
 Alpha  occ. eigenvalues --  -10.18748 -10.18711 -10.18685 -10.18635 -10.18340
 Alpha  occ. eigenvalues --   -1.02210  -0.89470  -0.87568  -0.82752  -0.77691
 Alpha  occ. eigenvalues --   -0.76358  -0.73042  -0.71680  -0.66264  -0.62587
 Alpha  occ. eigenvalues --   -0.61823  -0.59768  -0.58744  -0.52421  -0.51655
 Alpha  occ. eigenvalues --   -0.51093  -0.47935  -0.47092  -0.45624  -0.44722
 Alpha  occ. eigenvalues --   -0.43857  -0.42826  -0.41975  -0.41320  -0.40003
 Alpha  occ. eigenvalues --   -0.39283  -0.38107  -0.37907  -0.36860  -0.36391
 Alpha  occ. eigenvalues --   -0.34464  -0.33380  -0.32424  -0.31812  -0.28582
 Alpha  occ. eigenvalues --   -0.27559  -0.24083  -0.21479  -0.19928
 Alpha virt. eigenvalues --   -0.03670  -0.00798   0.03514   0.07160   0.09053
 Alpha virt. eigenvalues --    0.10297   0.10978   0.11594   0.12717   0.13203
 Alpha virt. eigenvalues --    0.15255   0.15900   0.16961   0.17336   0.17554

 Mulliken charges:
               1
     1  N   -0.575897
     2  H    0.301194
     3  C   -0.064975
     4  H    0.117435
     5  C    0.019631
     6  H    0.130186
     7  O   -0.628745
     8  H    0.368659
     9  C    0.074679
    10  C   -0.168142
    11  C   -0.160012
    12  C    0.055906
    13  H    0.141031
    14  C   -0.166619
    15  H    0.129764
    16  C   -0.157855
    17  C    0.066636
    18  H    0.135413
    19  C   -0.140079
    20  H    0.136411
    21  C   -0.161831
    22  C   -0.136647
    23  H    0.131412
    24  H    0.134978
    25  H    0.131119
    26  C   -0.252221
    27  H    0.142810
    28  H    0.144216
    29  H    0.109960
    30  H    0.141584
 Sum of Mulliken charges =   0.00000

 Dipole moment (field-independent basis, Debye):
    X=             -0.4009    Y=             -0.9417    Z=             -0.1636  Tot=              1.0364
 Quadrupole moment (field-independent basis, Debye-Ang):
   XX=            -84.6779   YY=            -81.2701   ZZ=            -87.3173
   XY=             -1.4644   XZ=              1.2277   YZ=             -3.2103

  Exact polarizability: 229.735 -28.267 162.989 -15.541 -30.654 101.109
 Approx polarizability: 297.098 -45.037 235.557 -30.247 -58.183 136.528

                      1                      2                      3
                      A                      A                      A
 Frequencies --     20.5637                45.5549                96.5400
 Red. masses --      3.8605                 3.7608                 3.8604
 Frc consts  --      0.0010                 0.0046                 0.0212
 IR Inten    --      0.4345                 1.2260                 2.3229

                      4                      5                      6
                      A                      A                      A
 Frequencies --    125.3789               170.0602               176.2950
 Red. masses --      1.9751                 3.7110                 4.3086
 Frc consts  --      0.0183                 0.0632                 0.0789
 IR Inten    --      0.6612                 2.3197                 4.0804

                      7                      8                      9
                      A                      A                      A
 Frequencies --    188.9567               213.2138               258.6188
 Red. masses --      3.5416                 1.9617                 1.8099
 Frc consts  --      0.0745                 0.0525                 0.0713
 IR Inten    --      0.4733                 3.5304                 9.2609

                     10                     11                     12
                      A                      A                      A
 Frequencies --    298.9466               329.0535               344.3736
 Red. masses --      2.2918                 2.5629                 1.6455
 Frc consts  --      0.1207                 0.1635                 0.1150
 IR Inten    --     34.1453                72.0818               133.6559

                     13                     14                     15
                      A                      A                      A
 Frequencies --    378.6528               414.9810               453.1363
 Red. masses --      3.4717                 3.2838                 3.8746
 Frc consts  --      0.2933                 0.3332                 0.4687
 IR Inten    --      0.0780                 0.1430                 1.1328

                     16                     17                     18
                      A                      A                      A
 Frequencies --    497.9792               506.4899               539.5934
 Red. masses --      2.6567                 3.6267                 6.8403
 Frc consts  --      0.3882                 0.5481                 1.1734
 IR Inten    --     10.2593                18.8008                 0.6291

                     19                     20                     21
                      A                      A                      A
 Frequencies --    555.8660               638.0414               666.4772
 Red. masses --      3.9300                 4.8131                 4.8359
 Frc consts  --      0.7155                 1.1544                 1.2656
 IR Inten    --      3.9738                12.0405                 1.2334

                     22                     23                     24
                      A                      A                      A
 Frequencies --    700.1887               723.8576               761.4120
 Red. masses --      3.4301                 1.5920                 1.9054
 Frc consts  --      0.9908                 0.4915                 0.6508
 IR Inten    --      9.2497               201.1085                 8.0900

                     25                     26                     27
                      A                      A                      A
 Frequencies --    783.5626               794.3741               798.7272
 Red. masses --      1.7099                 4.4588                 2.9256
 Frc consts  --      0.6185                 1.6578                 1.0997
 IR Inten    --     62.6514                 1.4342                13.8163

                     28                     29                     30
                      A                      A                      A
 Frequencies --    854.7538               891.8573               900.3756
 Red. masses --      1.3884                 1.5935                 2.5489
 Frc consts  --      0.5977                 0.7468                 1.2174
 IR Inten    --     33.4939                19.2408                 2.3200

                     31                     32                     33
                      A                      A                      A
 Frequencies --    921.7583               936.1633               983.7705
 Red. masses --      2.1362                 2.1347                 2.6254
 Frc consts  --      1.0693                 1.1023                 1.4971
 IR Inten    --      8.2063                21.7082                 6.8906

                     34                     35                     36
                      A                      A                      A
 Frequencies --    987.3023              1000.8701              1007.6012
 Red. masses --      1.5895                 1.3707                 2.8927
 Frc consts  --      0.9129                 0.8090                 1.7303
 IR Inten    --      8.6660                 2.0220                 7.8489

                     37                     38                     39
                      A                      A                      A
 Frequencies --   1027.2206              1035.8490              1058.2156
 Red. masses --      1.3346                 2.3955                 2.3839
 Frc consts  --      0.8297                 1.5144                 1.5728
 IR Inten    --      0.3123                46.5296                 6.1513

                     40                     41                     42
                      A                      A                      A
 Frequencies --   1064.4423              1157.2908              1166.2892
 Red. masses --      1.9049                 1.5719                 2.0177
 Frc consts  --      1.2717                 1.2404                 1.6170
 IR Inten    --     28.8587                 9.7781                13.8855

                     43                     44                     45
                      A                      A                      A
 Frequencies --   1178.0291              1183.1707              1205.5390
 Red. masses --      1.3705                 1.9638                 1.5485
 Frc consts  --      1.1205                 1.6197                 1.3259
 IR Inten    --      4.9354                63.7113                 6.1666

                     46                     47                     48
                      A                      A                      A
 Frequencies --   1213.4192              1218.2970              1260.9948
 Red. masses --      1.2507                 1.2185                 2.4428
 Frc consts  --      1.0850                 1.0656                 2.2886
 IR Inten    --      0.9700                 2.6878                 6.7267

                     49                     50                     51
                      A                      A                      A
 Frequencies --   1279.2007              1295.7859              1306.8403
 Red. masses --      1.5355                 1.1980                 1.4853
 Frc consts  --      1.4804                 1.1851                 1.4946
 IR Inten    --     47.8429                13.2323                 1.7130

                     52                     53                     54
                      A                      A                      A
 Frequencies --   1323.6319              1374.3507              1395.8311
 Red. masses --      1.9009                 1.5120                 1.6776
 Frc consts  --      1.9622                 1.6827                 1.9257
 IR Inten    --     10.9270                 9.2315                18.3840

                     55                     56                     57
                      A                      A                      A
 Frequencies --   1423.2775              1426.4052              1439.0621
 Red. masses --      1.6414                 3.5869                 2.6539
 Frc consts  --      1.9591                 4.2998                 3.2381
 IR Inten    --      9.9313                 0.5102                15.5184

                     58                     59                     60
                      A                      A                      A
 Frequencies --   1446.5672              1496.8741              1500.5987
 Red. masses --      1.9289                 1.1469                 2.1323
 Frc consts  --      2.3781                 1.5141                 2.8289
 IR Inten    --     22.5284                 7.9958                 0.3657

                     61                     62                     63
                      A                      A                      A
 Frequencies --   1515.5382              1529.4042              1532.5718
 Red. masses --      1.2074                 1.1333                 1.9761
 Frc consts  --      1.6340                 1.5618                 2.7346
 IR Inten    --     33.6361                 5.3309                 2.3457

                     64                     65                     66
                      A                      A                      A
 Frequencies --   1547.9953              1560.0092              1570.9780
 Red. masses --      1.0828                 1.0549                 3.1323
 Frc consts  --      1.5287                 1.5125                 4.5547
 IR Inten    --     14.9929                 6.8533                10.3527

                     67                     68                     69
                      A                      A                      A
 Frequencies --   1630.4057              1665.7573              1694.4857
 Red. masses --      6.7353                 5.1335                 6.3097
 Frc consts  --     10.5487                 8.3925                10.6742
 IR Inten    --      0.0735                 7.4608                 1.2447

                     70                     71                     72
                      A                      A                      A
 Frequencies --   2923.5940              2933.1137              3014.8154
 Red. masses --      1.0697                 1.0617                 1.0840
 Frc consts  --      5.3871                 5.3815                 5.8049
 IR Inten    --     75.0304               263.6805                89.7465

                     73                     74                     75
                      A                      A                      A
 Frequencies --   3066.1681              3069.9486              3126.1315
 Red. masses --      1.0716                 1.0854                 1.0987
 Frc consts  --      5.9359                 6.0272                 6.3259
 IR Inten    --     47.6856                38.6883                38.2189

                     76                     77                     78
                      A                      A                      A
 Frequencies --   3182.5358              3188.6739              3193.4968
 Red. masses --      1.0865                 1.0860                 1.0882
 Frc consts  --      6.4835                 6.5058                 6.5390
 IR Inten    --     10.0516                 5.7229                 0.2939

                     79                     80                     81
                      A                      A                      A
 Frequencies --   3204.4399              3208.2088              3223.5331
 Red. masses --      1.0958                 1.0940                 1.0979
 Frc consts  --      6.6297                 6.6340                 6.7217
 IR Inten    --     31.6263                53.3593                46.6135

                     82                     83                     84
                      A                      A                      A
 Frequencies --   3225.7883              3556.3608              3644.0855
 Red. masses --      1.0913                 1.0738                 1.0658
 Frc consts  --      6.6905                 8.0021                 8.3392
 IR Inten    --      6.8809                 5.7720                 9.3894

 - Thermochemistry -
 -------------------
 Temperature   298.150 Kelvin.  Pressure   1.00000 Atm.
 Atom     1 has atomic number  7 and mass  14.00307

 Molecular mass:   201.11536 amu.
 Principal axes and moments of inertia in atomic units:
                           1         2         3
     Eigenvalues --  1580.889915407.325935896.39661
           X            0.99994   0.00670   0.00913
           Y           -0.00660   0.99992  -0.01033
           Z           -0.00919   0.01026   0.99991
 This molecule is an asymmetric top.
 Rotational symmetry number  1.
 Warning -- assumption of classical behavior for rotation
           may cause significant error
 Rotational temperatures (Kelvin)      0.05479     0.01602     0.01469
 Rotational constants (GHZ):           1.14160     0.33376     0.30608
 Zero-point vibrational energy     672603.8 (Joules/Mol)
                                  160.75616 (Kcal/Mol)
 Warning -- explicit consideration of  19 degrees of freedom as
           vibrations may cause significant error
 Vibrational temperatures:     29.59    65.54   138.90   180.39   244.68
          (Kelvin)            253.65   271.87   306.77   372.09   430.12
                              473.43   495.48   544.80   597.07   651.96
                              716.48   728.73   776.35   799.77   918.00
                              958.91  1007.42  1041.47  1095.50  1127.37
                             1142.93  1149.19  1229.80  1283.18  1295.44
                             1326.20  1346.93  1415.43  1420.51  1440.03
                             1449.71  1477.94  1490.36  1522.54  1531.50
                             1665.08  1678.03  1694.92  1702.32  1734.50
                             1745.84  1752.86  1814.29  1840.48  1864.35
                             1880.25  1904.41  1977.38  2008.29  2047.78
                             2052.28  2070.49  2081.29  2153.67  2159.03
                             2180.52  2200.47  2205.03  2227.22  2244.51
                             2260.29  2345.79  2396.65  2437.99  4206.40
                             4220.10  4337.65  4411.53  4416.97  4497.81
                             4578.96  4587.79  4594.73  4610.47  4615.90
                             4637.95  4641.19  5116.81  5243.03

 Zero-point correction=                           0.256181 (Hartree/Particle)
 Thermal correction to Energy=                    0.269498
 Thermal correction to Enthalpy=                  0.270442
 Thermal correction to Gibbs Free Energy=         0.215231
 Sum of electronic and zero-point Energies=           -634.029175
 Sum of electronic and thermal Energies=              -634.015858
 Sum of electronic and thermal Enthalpies=            -634.014914
 Sum of electronic and thermal Free Energies=         -634.070125

                     E (Thermal)             CV                S
                      KCal/Mol        Cal/Mol-Kelvin    Cal/Mol-Kelvin
 Total                  169.113             51.977            116.202
 Electronic               0.000              0.000              0.000
 Translational            0.889              2.981             41.801
 Rotational               0.889              2.981             32.289
 Vibrational            167.335             46.015             42.113
 Vibration     1          0.593              1.986              6.579
 Vibration     2          0.595              1.979              5.002
 Vibration     3          0.603              1.952              3.523
 Vibration     4          0.610              1.928              3.016
 Vibration     5          0.625              1.879              2.435
 Vibration     6          0.628              1.872              2.367
 Vibration     7          0.633              1.855              2.238
 Vibration     8          0.644              1.821              2.016
 Vibration     9          0.667              1.748              1.671
 Vibration    10          0.692              1.676              1.423
 Vibration    11          0.712              1.617              1.265
 Vibration    12          0.723              1.587              1.192
 Vibration    13          0.749              1.516              1.045
 Vibration    14          0.778              1.438              0.909
 Vibration    15          0.812              1.354              0.786
 Vibration    16          0.853              1.254              0.663
 Vibration    17          0.862              1.236              0.642
 Vibration    18          0.895              1.163              0.566
 Vibration    19          0.911              1.127              0.532

 Optimization completed.
    -- Stationary point found.

 1\1\GINC-HOLY7C07209\Freq\RB3LYP\6-31G\C13H15N1O1\ROOT\07-Dec-2017\0\\
 #P Geom=AllCheck Guess=TCheck SCRF=Check GenChk RB3LYP/6-31G Freq\\Me
 cat\\0,1\N,0.7214478941,-0.5348582895,3.7256137321\H,1.2081109616,-1.2
 573385928,3.2033823551\C,-0.596270917,-0.2892818726,3.1563035493\H,-1.
 295625644,-1.1360658458,3.3020322451\C,-0.4998570616,-0.0085158701,1.6
 507360599\H,-1.5231683089,0.0418060886,1.2509319847\O,0.1808696504,-1.
 1797149785,1.0927213446\H,0.4034672195,-1.0139541424,0.1550007203\C,0.
 2155186041,1.2829056492,1.3180138263\C,1.5919000708,1.3394027987,1.204

 Normal termination of Gaussian 16 at Thu Dec  7 00:30:31 2017.
