 Gaussian 16, Revision A.03,
 Gaussian 16:  ES64L-G16RevA.03 25-Dec-2016

 ------------------------------------------------------------
 #p pddg scrf=(pcm,solvent=perfluorobenzene) opt freq=noraman
 ------------------------------------------------------------

 ---------
 No Cp cat
 ---------
 Symbolic Z-matrix:
 Charge =  0 Multiplicity = 1

 SCF Done:  E(RPDDG) =  0.169314525707E-01 A.U. after   15 cycles
 SCF Done:  E(RPDDG) =  0.116523552356E-02 A.U. after   15 cycles
 SCF Done:  E(RPDDG) = -0.544654229316E-02 A.U. after   14 cycles
 SCF Done:  E(RPDDG) = -0.511814945395E-02 A.U. after   14 cycles
 SCF Done:  E(RPDDG) = -0.590393210092E-02 A.U. after   14 cycles
 SCF Done:  E(RPDDG) = -0.670894167553E-02 A.U. after   13 cycles
 SCF Done:  E(RPDDG) = -0.743614991524E-02 A.U. after   14 cycles
 SCF Done:  E(RPDDG) = -0.916623301629E-02 A.U. after   15 cycles
 SCF Done:  E(RPDDG) = -0.101326851594E-01 A.U. after   13 cycles
 SCF Done:  E(RPDDG) = -0.119669858756E-01 A.U. after   14 cycles
 SCF Done:  E(RPDDG) = -0.123138077087E-01 A.U. after   13 cycles
 SCF Done:  E(RPDDG) = -0.124294568006E-01 A.U. after   13 cycles
 SCF Done:  E(RPDDG) = -0.124776729143E-01 A.U. after   12 cycles
 SCF Done:  E(RPDDG) = -0.124873301829E-01 A.U. after   11 cycles
 SCF Done:  E(RPDDG) = -0.124916178567E-01 A.U. after   11 cycles
 SCF Done:  E(RPDDG) = -0.124919552140E-01 A.U. after   11 cycles
 SCF Done:  E(RPDDG) = -0.124919852906E-01 A.U. after    9 cycles
 SCF Done:  E(RPDDG) = -0.124919708975E-01 A.U. after    9 cycles
 SCF Done:  E(RPDDG) = -0.124919485735E-01 A.U. after    9 cycles
 Optimization completed.
    -- Stationary point found.
 Normal termination of Gaussian 16 at Sat Dec  2 17:56:17 2017.

 --------------------------------------------------------------
 #P Geom=AllCheck Guess=TCheck SCRF=Check GenChk RPDDG/ZDO Freq
 --------------------------------------------------------------

 Structure from the checkpoint file:  "/scratch/dhuang9_cat3_nocp_isolated/Gau-22753.chk"
 ---------
 No Cp cat
 ---------
 Charge =  0 Multiplicity = 1

                         Standard orientation:
 ---------------------------------------------------------------------
 Center     Atomic      Atomic             Coordinates (Angstroms)
 Number     Number       Type             X           Y           Z
 ---------------------------------------------------------------------
      1          7           0        3.398538   -1.770026    0.411149
      2          1           0        2.569944   -1.878635    0.944691
      3          1           0        4.121298   -1.442172    1.004499
      4          6           0        3.169194   -0.837645   -0.705430
      5          1           0        4.147894   -0.655541   -1.204206
      6          1           0        2.546774   -1.354911   -1.470076
      7          6           0        2.531105    0.523530   -0.343306
      8          1           0        2.780110    1.240954   -1.190436
      9          8           0        3.131081    0.931747    0.867880
     10          1           0        2.769085    1.791368    1.058619
     11          6           0        1.018976    0.522290   -0.226683
     12          6           0        0.244186   -0.606858   -0.174877
     13          6           0        0.407005    1.807063   -0.183918
     14          6           0       -1.169786   -0.490970   -0.069115
     15          1           0        0.667417   -1.625968   -0.221652
     16          6           0       -0.950540    1.936539   -0.080725
     17          1           0        1.038275    2.709960   -0.246021
     18          6           0       -1.985801   -1.652285   -0.011285
     19          6           0       -1.768770    0.777099   -0.018199
     20          1           0       -1.422996    2.931966   -0.048104
     21          6           0       -3.346299   -1.525456    0.094328
     22          1           0       -1.513105   -2.647448   -0.051219
     23          6           0       -3.179735    0.887480    0.090491
     24          6           0       -3.948514   -0.245697    0.145747
     25          1           0       -3.985965   -2.419294    0.140627
     26          1           0       -3.640416    1.887967    0.129400
     27          1           0       -5.042859   -0.172596    0.230634
 ---------------------------------------------------------------------

 SCF Done:  E(RPDDG) = -0.124919485752E-01 A.U. after    2 cycles

 The electronic state is 1-A.
 Alpha  occ. eigenvalues --   -1.56462  -1.45884  -1.31398  -1.24124  -1.17561
 Alpha  occ. eigenvalues --   -1.08580  -1.03474  -0.94660  -0.84812  -0.81782
 Alpha  occ. eigenvalues --   -0.80682  -0.76017  -0.68844  -0.67437  -0.65030
 Alpha  occ. eigenvalues --   -0.62594  -0.60795  -0.59181  -0.58167  -0.56507
 Alpha  occ. eigenvalues --   -0.55193  -0.53935  -0.53391  -0.52307  -0.51418
 Alpha  occ. eigenvalues --   -0.50432  -0.48143  -0.46899  -0.45383  -0.45025
 Alpha  occ. eigenvalues --   -0.44238  -0.41675  -0.39871  -0.35232  -0.34990
 Alpha  occ. eigenvalues --   -0.33207
 Alpha virt. eigenvalues --   -0.02264  -0.00541   0.03212   0.06359   0.08062
 Alpha virt. eigenvalues --    0.09126   0.09700   0.10649   0.10717   0.11082
 Alpha virt. eigenvalues --    0.11436   0.11538   0.12944   0.13000   0.13860

 Mulliken charges:
               1
     1  N   -0.108938
     2  H    0.066508
     3  H    0.072863
     4  C   -0.215953
     5  H    0.109844
     6  H    0.113934
     7  C    0.055610
     8  H    0.101810
     9  O   -0.323543
    10  H    0.214213
    11  C   -0.127667
    12  C   -0.121980
    13  C   -0.160847
    14  C   -0.040042
    15  H    0.168747
    16  C   -0.128943
    17  H    0.154349
    18  C   -0.139046
    19  C   -0.042936
    20  H    0.158890
    21  C   -0.148219
    22  H    0.159179
    23  C   -0.138751
    24  C   -0.148415
    25  H    0.155756
    26  H    0.158020
    27  H    0.155556
 Sum of Mulliken charges =   0.00000

 Dipole moment (field-independent basis, Debye):
    X=             -1.6664    Y=              2.0327    Z=             -0.4576  Tot=              2.6680
 N-N= 4.596912729844D+02 E-N=-7.502197503898D+02  KE=-1.186528537724D+02
  Exact polarizability: 187.320  15.390 141.551  -8.216  -1.417  41.444
 Approx polarizability: 131.761  10.192 112.838  -6.011  -0.682  29.512
 Leave Link  601 at Sat Dec  2 17:56:42 2017, MaxMem=   402653184 cpu:               1.2 elap:               0.4
 (Enter /n/sw/g16_nehalem/g16/l701.exe)
 ... and contract with generalized density number  0.
 Compute integral second derivatives.
 D2PCM: PCM CHGder 2nd derivatives, FixD1E=F FixD2E=F DoIter=F DoCFld=F I1PDM=0
 GePol: Maximum number of non-zero 2nd derivatives   =     194
 Leave Link  701 at Sat Dec  2 17:56:50 2017, MaxMem=   402653184 cpu:              26.5 elap:               8.6

                      1                      2                      3
                      A                      A                      A
 Frequencies --     44.7052                74.8169               134.6267
 Red. masses --      4.0173                 4.7252                 3.6613
 Frc consts  --      0.0047                 0.0156                 0.0391
 IR Inten    --      0.9415                 0.5780                 0.2223

                      4                      5                      6
                      A                      A                      A
 Frequencies --    179.9039               201.6677               221.5815
 Red. masses --      4.1921                 4.3690                 2.4473
 Frc consts  --      0.0799                 0.1047                 0.0708
 IR Inten    --      1.4205                 2.9164                12.9411

                      7                      8                      9
                      A                      A                      A
 Frequencies --    264.6651               307.0358               342.6037
 Red. masses --      2.2881                 1.8400                 2.0035
 Frc consts  --      0.0944                 0.1022                 0.1386
 IR Inten    --      2.1221                93.8215                52.2820

                     10                     11                     12
                      A                      A                      A
 Frequencies --    371.8617               389.8594               418.6945
 Red. masses --      2.5975                 2.2027                 2.2398
 Frc consts  --      0.2116                 0.1972                 0.2313
 IR Inten    --     29.0148                16.3965                 3.8390

                     13                     14                     15
                      A                      A                      A
 Frequencies --    462.6066               472.6255               486.5795
 Red. masses --      2.5537                 3.6155                 3.1086
 Frc consts  --      0.3220                 0.4758                 0.4336
 IR Inten    --     25.5826                 2.5516                 3.4758

                     16                     17                     18
                      A                      A                      A
 Frequencies --    532.3731               545.4520               637.1398
 Red. masses --      2.9730                 6.8161                 3.0080
 Frc consts  --      0.4965                 1.1948                 0.7194
 IR Inten    --      1.4151                 0.0771                16.0338

                     19                     20                     21
                      A                      A                      A
 Frequencies --    645.6817               703.5424               735.0385
 Red. masses --      5.7639                 4.0958                 2.4725
 Frc consts  --      1.4158                 1.1945                 0.7871
 IR Inten    --      4.0225                 0.6588                 0.8738

                     22                     23                     24
                      A                      A                      A
 Frequencies --    760.4017               778.8204               851.4890
 Red. masses --      2.0831                 1.4663                 1.3804
 Frc consts  --      0.7096                 0.5240                 0.5897
 IR Inten    --      7.3597                82.5897                36.8207

                     25                     26                     27
                      A                      A                      A
 Frequencies --    886.8521               890.9572               920.4759
 Red. masses --      1.6622                 2.5874                 1.6989
 Frc consts  --      0.7702                 1.2101                 0.8481
 IR Inten    --     22.5658                 2.2178                 4.4084

                     28                     29                     30
                      A                      A                      A
 Frequencies --    942.6279               955.8835               965.2543
 Red. masses --      1.4708                 3.3788                 1.6815
 Frc consts  --      0.7700                 1.8189                 0.9231
 IR Inten    --      2.6737                 3.1438                28.8584

                     31                     32                     33
                      A                      A                      A
 Frequencies --    973.5484               979.9012               992.7466
 Red. masses --      2.2929                 1.8781                 1.9365
 Frc consts  --      1.2804                 1.0625                 1.1245
 IR Inten    --      7.9955                 4.5975                 0.0950

                     34                     35                     36
                      A                      A                      A
 Frequencies --   1007.3353              1031.8710              1068.7249
 Red. masses --      1.2458                 1.6428                 1.5007
 Frc consts  --      0.7448                 1.0306                 1.0099
 IR Inten    --      4.2065                 7.6273                 5.7423

                     37                     38                     39
                      A                      A                      A
 Frequencies --   1089.7262              1098.5568              1116.7823
 Red. masses --      1.2900                 1.1466                 1.2792
 Frc consts  --      0.9026                 0.8153                 0.9400
 IR Inten    --      1.7393                 1.1873                52.8983

                     40                     41                     42
                      A                      A                      A
 Frequencies --   1120.5554              1137.9706              1167.7396
 Red. masses --      1.2581                 1.1986                 1.2353
 Frc consts  --      0.9308                 0.9145                 0.9925
 IR Inten    --      4.5007                 4.8392                 8.4468

                     43                     44                     45
                      A                      A                      A
 Frequencies --   1178.9753              1199.9798              1205.8053
 Red. masses --      1.2224                 1.3413                 1.1670
 Frc consts  --      1.0011                 1.1379                 0.9998
 IR Inten    --     14.1033                 4.4468                 0.9057

                     46                     47                     48
                      A                      A                      A
 Frequencies --   1257.8703              1296.9594              1312.0548
 Red. masses --      2.0417                 2.0558                 1.5338
 Frc consts  --      1.9033                 2.0375                 1.5556
 IR Inten    --     22.4792                10.1440                45.8308

                     49                     50                     51
                      A                      A                      A
 Frequencies --   1335.2150              1348.1289              1387.8010
 Red. masses --      1.5759                 3.6693                 1.2306
 Frc consts  --      1.6553                 3.9291                 1.3964
 IR Inten    --      5.0221                27.5598                 3.2561

                     52                     53                     54
                      A                      A                      A
 Frequencies --   1429.0308              1431.1901              1476.2549
 Red. masses --      2.2146                 2.7875                 3.9361
 Frc consts  --      2.6646                 3.3640                 5.0540
 IR Inten    --     63.9905                48.0295                 2.1040

                     55                     56                     57
                      A                      A                      A
 Frequencies --   1538.3133              1610.8319              1635.9080
 Red. masses --      3.6987                 8.7065                 8.1155
 Frc consts  --      5.1569                13.3105                12.7962
 IR Inten    --      3.6892                 0.0802                 6.6279

                     58                     59                     60
                      A                      A                      A
 Frequencies --   1668.6017              1694.3686              1808.6046
 Red. masses --      1.1353                 8.2347                 9.5451
 Frc consts  --      1.8624                13.9289                18.3957
 IR Inten    --      5.6414                 4.8424                 0.0342

                     61                     62                     63
                      A                      A                      A
 Frequencies --   1817.3643              1853.6153              2620.3541
 Red. masses --      8.9741                 9.4902                 1.0931
 Frc consts  --     17.4632                19.2116                 4.4223
 IR Inten    --      4.7605                 0.7939                 1.6685

                     64                     65                     66
                      A                      A                      A
 Frequencies --   2849.9433              2862.6208              2939.7225
 Red. masses --      1.1013                 1.0688                 1.0939
 Frc consts  --      5.2702                 5.1604                 5.5699
 IR Inten    --      7.8414                10.3869                39.1889

                     67                     68                     69
                      A                      A                      A
 Frequencies --   2942.4473              2953.4338              2955.4656
 Red. masses --      1.0984                 1.0941                 1.0945
 Frc consts  --      5.6032                 5.6230                 5.6327
 IR Inten    --     79.8329                27.8216                37.8505

                     70                     71                     72
                      A                      A                      A
 Frequencies --   2961.6215              2967.7064              2979.3399
 Red. masses --      1.1029                 1.1011                 1.1074
 Frc consts  --      5.6996                 5.7135                 5.7915
 IR Inten    --     55.1523                65.1278                99.0835

                     73                     74                     75
                      A                      A                      A
 Frequencies --   3352.0249              3493.4224              3785.8876
 Red. masses --      1.0990                 1.0417                 1.0669
 Frc consts  --      7.2755                 7.4902                 9.0099
 IR Inten    --      0.8672                 9.4909                21.8689

 - Thermochemistry -
 -------------------
 Temperature   298.150 Kelvin.  Pressure   1.00000 Atm.
 Atom     1 has atomic number  7 and mass  14.00307

 Molecular mass:   187.09971 amu.
 Principal axes and moments of inertia in atomic units:
                           1         2         3
     Eigenvalues --  1151.464474435.482895357.79701
           X            0.99998  -0.00361  -0.00422
           Y            0.00360   0.99999  -0.00170
           Z            0.00423   0.00168   0.99999
 This molecule is an asymmetric top.
 Rotational symmetry number  1.
 Warning -- assumption of classical behavior for rotation
           may cause significant error
 Rotational temperatures (Kelvin)      0.07522     0.01953     0.01617
 Rotational constants (GHZ):           1.56734     0.40689     0.33684
 Zero-point vibrational energy     586541.9 (Joules/Mol)
                                  140.18687 (Kcal/Mol)
 Warning -- explicit consideration of  17 degrees of freedom as
           vibrations may cause significant error
 Vibrational temperatures:     64.32   107.64   193.70   258.84   290.15
          (Kelvin)            318.81   380.79   441.76   492.93   535.03
                              560.92   602.41   665.59   680.00   700.08
                              765.97   784.78   916.70   928.99  1012.24
                             1057.56  1094.05  1120.55  1225.10  1275.98
                             1281.89  1324.36  1356.23  1375.30  1388.79
                             1400.72  1409.86  1428.34  1449.33  1484.63
                             1537.66  1567.87  1580.58  1606.80  1612.23
                             1637.29  1680.12  1696.28  1726.50  1734.88
                             1809.79  1866.04  1887.75  1921.08  1939.66
                             1996.74  2056.06  2059.16  2124.00  2213.29
                             2317.63  2353.71  2400.75  2437.82  2602.18
                             2614.78  2666.94  3770.11  4100.43  4118.67
                             4229.60  4233.53  4249.33  4252.26  4261.11
                             4269.87  4286.61  4822.82  5026.26  5447.05

 Zero-point correction=                           0.223402 (Hartree/Particle)
 Thermal correction to Energy=                    0.235062
 Thermal correction to Enthalpy=                  0.236006
 Thermal correction to Gibbs Free Energy=         0.185603
 Sum of electronic and zero-point Energies=              0.210910
 Sum of electronic and thermal Energies=                 0.222570
 Sum of electronic and thermal Enthalpies=               0.223514
 Sum of electronic and thermal Free Energies=            0.173111

                     E (Thermal)             CV                S
                      KCal/Mol        Cal/Mol-Kelvin    Cal/Mol-Kelvin
 Total                  147.503             47.102            106.082
 Electronic               0.000              0.000              0.000
 Translational            0.889              2.981             41.585
 Rotational               0.889              2.981             31.682
 Vibrational            145.726             41.140             32.815
 Vibration     1          0.595              1.980              5.039
 Vibration     2          0.599              1.966              4.022
 Vibration     3          0.613              1.919              2.879
 Vibration     4          0.629              1.867              2.329
 Vibration     5          0.639              1.838              2.118
 Vibration     6          0.648              1.808              1.946
 Vibration     7          0.671              1.738              1.631
 Vibration     8          0.697              1.660              1.378
 Vibration     9          0.722              1.590              1.200
 Vibration    10          0.744              1.530              1.072
 Vibration    11          0.758              1.492              1.001
 Vibration    12          0.782              1.430              0.896
 Vibration    13          0.820              1.333              0.759
 Vibration    14          0.829              1.311              0.730
 Vibration    15          0.843              1.280              0.693
 Vibration    16          0.887              1.178              0.582
 Vibration    17          0.901              1.150              0.554

 Optimization completed.
    -- Stationary point found.
 Normal termination of Gaussian 16 at Sat Dec  2 17:56:54 2017.
