 Gaussian 16, Revision A.03,
 Gaussian 16:  ES64L-G16RevA.03 25-Dec-2016

 ------------------------
 #p pddg opt freq=noraman
 ------------------------

 --------
 diMe cat
 --------
 Symbolic Z-matrix:
 Charge =  0 Multiplicity = 1

 SCF Done:  E(RPDDG) =  0.520502683544E-01 A.U. after   15 cycles
 SCF Done:  E(RPDDG) =  0.133860416778E-01 A.U. after   14 cycles
 SCF Done:  E(RPDDG) =  0.369240037912E-02 A.U. after   14 cycles
 SCF Done:  E(RPDDG) =  0.201503395954E-02 A.U. after   14 cycles
 SCF Done:  E(RPDDG) =  0.223663275221E-02 A.U. after   13 cycles
 SCF Done:  E(RPDDG) =  0.151131228813E-02 A.U. after   13 cycles
 SCF Done:  E(RPDDG) =  0.131918546481E-02 A.U. after   12 cycles
 SCF Done:  E(RPDDG) =  0.128406903332E-02 A.U. after   13 cycles
 SCF Done:  E(RPDDG) =  0.110942217793E-02 A.U. after   12 cycles
 SCF Done:  E(RPDDG) =  0.105804467535E-02 A.U. after   11 cycles
 SCF Done:  E(RPDDG) = -0.518165305357E-02 A.U. after   12 cycles
 SCF Done:  E(RPDDG) = -0.532449231105E-02 A.U. after   13 cycles
 SCF Done:  E(RPDDG) = -0.544331715696E-02 A.U. after   13 cycles
 SCF Done:  E(RPDDG) = -0.548382945226E-02 A.U. after   12 cycles
 SCF Done:  E(RPDDG) = -0.549705570563E-02 A.U. after   12 cycles
 SCF Done:  E(RPDDG) = -0.550713941391E-02 A.U. after   12 cycles
 SCF Done:  E(RPDDG) = -0.550933191187E-02 A.U. after   12 cycles
 SCF Done:  E(RPDDG) = -0.550965722118E-02 A.U. after   10 cycles
 SCF Done:  E(RPDDG) = -0.550982465529E-02 A.U. after   10 cycles
 Optimization completed.
    -- Stationary point found.
 Normal termination of Gaussian 16 at Wed Dec  6 23:20:16 2017.

 --------------------------------------------------------------
 #P Geom=AllCheck Guess=TCheck SCRF=Check GenChk RPDDG/ZDO Freq
 --------------------------------------------------------------

 Structure from the checkpoint file:  "/scratch/dhuang9_cat3_nme_isolated/Gau-156077.chk"
 --------
 diMe cat
 --------
 Charge =  0 Multiplicity = 1

                         Standard orientation:
 ---------------------------------------------------------------------
 Center     Atomic      Atomic             Coordinates (Angstroms)
 Number     Number       Type             X           Y           Z
 ---------------------------------------------------------------------
      1          7           0        3.821031    0.789754    0.561335
      2          1           0        4.494051    0.413622   -0.061532
      3          6           0        2.835139   -0.215056    0.986410
      4          1           0        3.384142   -0.889696    1.679216
      5          6           0        2.144106   -1.074250   -0.117702
      6          1           0        2.422878   -2.163250    0.056427
      7          8           0        2.614205   -0.657773   -1.379488
      8          1           0        2.149681   -1.197565   -2.009475
      9          6           0        0.637723   -0.926193   -0.033609
     10          6           0        0.057027    0.314695   -0.120431
     11          6           0       -0.160523   -2.086947    0.123803
     12          6           0       -1.355682    0.437216   -0.063002
     13          1           0        0.684697    1.221921   -0.225512
     14          6           0       -1.525479   -1.984432    0.185880
     15          1           0        0.318835   -3.076275    0.202266
     16          6           0       -1.976815    1.711307   -0.156770
     17          6           0       -2.148313   -0.712286    0.089561
     18          1           0       -2.152514   -2.881810    0.310654
     19          6           0       -3.341879    1.809447   -0.098728
     20          1           0       -1.348421    2.608481   -0.275785
     21          6           0       -3.561893   -0.587440    0.147660
     22          6           0       -4.140923    0.650574    0.054706
     23          1           0       -3.832969    2.790728   -0.170436
     24          1           0       -4.177524   -1.493118    0.267836
     25          1           0       -5.234395    0.758305    0.098674
     26          6           0        3.246614    2.030322    0.003687
     27          1           0        2.770503    1.916033   -0.984289
     28          1           0        2.483774    2.446855    0.679304
     29          1           0        4.043043    2.778676   -0.096251
     30          1           0        2.078752    0.299264    1.626669
 ---------------------------------------------------------------------

 SCF Done:  E(RPDDG) = -0.550982465916E-02 A.U. after    2 cycles

 The electronic state is 1-A.
 Alpha  occ. eigenvalues --   -1.56241  -1.45685  -1.31519  -1.27157  -1.18265
 Alpha  occ. eigenvalues --   -1.11512  -1.04906  -1.01373  -0.88624  -0.83166
 Alpha  occ. eigenvalues --   -0.80727  -0.78878  -0.75775  -0.67972  -0.67158
 Alpha  occ. eigenvalues --   -0.65072  -0.62494  -0.61181  -0.59177  -0.56988
 Alpha  occ. eigenvalues --   -0.56622  -0.55244  -0.54340  -0.53733  -0.52907
 Alpha  occ. eigenvalues --   -0.51531  -0.50363  -0.49192  -0.47270  -0.46598
 Alpha  occ. eigenvalues --   -0.46028  -0.45664  -0.44600  -0.43998  -0.40907
 Alpha  occ. eigenvalues --   -0.39570  -0.35060  -0.33076  -0.32616
 Alpha virt. eigenvalues --   -0.02041  -0.00219   0.03526   0.06625   0.08481
 Alpha virt. eigenvalues --    0.09446   0.10009   0.10844   0.11040   0.11174
 Alpha virt. eigenvalues --    0.11502   0.11785   0.12942   0.13254   0.13899

 Mulliken charges:
               1
     1  N   -0.054169
     2  H    0.088300
     3  C   -0.213022
     4  H    0.104899
     5  C    0.062139
     6  H    0.092971
     7  O   -0.315913
     8  H    0.209740
     9  C   -0.142643
    10  C   -0.117354
    11  C   -0.142400
    12  C   -0.036353
    13  H    0.169773
    14  C   -0.135780
    15  H    0.151964
    16  C   -0.133852
    17  C   -0.033724
    18  H    0.153539
    19  C   -0.147411
    20  H    0.153536
    21  C   -0.136755
    22  C   -0.145292
    23  H    0.151020
    24  H    0.152878
    25  H    0.150681
    26  C   -0.275743
    27  H    0.085813
    28  H    0.089942
    29  H    0.094949
    30  H    0.118267
 Sum of Mulliken charges =   0.00000

 Dipole moment (field-independent basis, Debye):
    X=             -1.7823    Y=             -1.0956    Z=             -0.7341  Tot=              2.2172
 N-N= 5.203503559371D+02 E-N=-8.594378430483D+02  KE=-1.268101037581D+02
  Exact polarizability: 170.970 -14.591 137.685  -4.313  -8.260  45.726
 Approx polarizability: 133.471 -11.011 122.140  -4.948  -8.728  34.037
 Leave Link  601 at Wed Dec  6 23:20:24 2017, MaxMem=   402653184 cpu:               0.8 elap:               0.4
 (Enter /n/sw/g16_nehalem/g16/l701.exe)
 ... and contract with generalized density number  0.
 Compute integral second derivatives.
 Leave Link  701 at Wed Dec  6 23:20:25 2017, MaxMem=   402653184 cpu:               1.1 elap:               0.5
 (Enter /n/sw/g16_nehalem/g16/l702.exe)
 L702 exits ... SP integral derivatives will be done elsewhere.

                      1                      2                      3
                      A                      A                      A
 Frequencies --     33.3219                71.3878               112.3929
 Red. masses --      3.6909                 4.4317                 3.4090
 Frc consts  --      0.0024                 0.0133                 0.0254
 IR Inten    --      0.1633                 0.2613                 0.1132

                      4                      5                      6
                      A                      A                      A
 Frequencies --    156.5218               179.5157               186.3528
 Red. masses --      3.2299                 5.4649                 3.9459
 Frc consts  --      0.0466                 0.1038                 0.0807
 IR Inten    --      0.3330                 2.7371                 1.7812

                      7                      8                      9
                      A                      A                      A
 Frequencies --    224.2085               294.0773               305.6040
 Red. masses --      2.9397                 1.3101                 4.0162
 Frc consts  --      0.0871                 0.0668                 0.2210
 IR Inten    --      1.1901               103.8541                 2.6361

                     10                     11                     12
                      A                      A                      A
 Frequencies --    314.9427               348.0704               369.2640
 Red. masses --      1.3940                 2.0078                 2.9100
 Frc consts  --      0.0815                 0.1433                 0.2338
 IR Inten    --     15.3681                 7.2870                 5.4191

                     13                     14                     15
                      A                      A                      A
 Frequencies --    389.5646               441.8587               463.9373
 Red. masses --      3.2932                 3.4233                 2.3466
 Frc consts  --      0.2945                 0.3938                 0.2976
 IR Inten    --      0.5282                 3.1269                26.5251

                     16                     17                     18
                      A                      A                      A
 Frequencies --    496.3118               499.2005               546.9131
 Red. masses --      2.9854                 2.5288                 5.7155
 Frc consts  --      0.4333                 0.3713                 1.0073
 IR Inten    --      4.5247                 0.1102                 0.4551

                     19                     20                     21
                      A                      A                      A
 Frequencies --    549.0505               652.8844               660.0250
 Red. masses --      5.0509                 4.3177                 2.9492
 Frc consts  --      0.8971                 1.0844                 0.7570
 IR Inten    --      0.9207                 2.7352                15.6839

                     22                     23                     24
                      A                      A                      A
 Frequencies --    675.6270               741.0455               755.6038
 Red. masses --      3.5171                 2.0762                 4.3669
 Frc consts  --      0.9459                 0.6718                 1.4690
 IR Inten    --      3.3414                 0.1389                 1.2325

                     25                     26                     27
                      A                      A                      A
 Frequencies --    777.1354               845.6585               869.5757
 Red. masses --      1.2483                 1.3845                 2.0673
 Frc consts  --      0.4442                 0.5834                 0.9210
 IR Inten    --     74.0950                42.8122                17.0389

                     28                     29                     30
                      A                      A                      A
 Frequencies --    886.0972               905.4782               926.2666
 Red. masses --      1.6257                 2.9745                 1.5498
 Frc consts  --      0.7521                 1.4369                 0.7834
 IR Inten    --     18.1968                11.5072                29.7005

                     31                     32                     33
                      A                      A                      A
 Frequencies --    942.5547               954.1170               956.4383
 Red. masses --      1.4637                 1.1906                 3.3356
 Frc consts  --      0.7662                 0.6386                 1.7978
 IR Inten    --      1.6247                24.0581                 1.9059

                     34                     35                     36
                      A                      A                      A
 Frequencies --    967.2190               972.3935               992.5760
 Red. masses --      1.7232                 1.7082                 1.9772
 Frc consts  --      0.9498                 0.9516                 1.1477
 IR Inten    --     19.7679                 4.8812                 0.1828

                     37                     38                     39
                      A                      A                      A
 Frequencies --   1009.4011              1033.4392              1067.5537
 Red. masses --      2.3993                 1.5314                 1.6587
 Frc consts  --      1.4404                 0.9636                 1.1138
 IR Inten    --      2.5442                 3.5483                25.1948

                     40                     41                     42
                      A                      A                      A
 Frequencies --   1086.2147              1091.0105              1099.3648
 Red. masses --      1.1962                 1.3120                 1.1416
 Frc consts  --      0.8316                 0.9201                 0.8129
 IR Inten    --     15.5562                 3.2431                 0.7737

                     43                     44                     45
                      A                      A                      A
 Frequencies --   1116.6851              1127.7456              1137.5905
 Red. masses --      1.6974                 1.0913                 1.3910
 Frc consts  --      1.2471                 0.8177                 1.0606
 IR Inten    --      7.8924                 1.6123                14.4569

                     46                     47                     48
                      A                      A                      A
 Frequencies --   1163.3412              1181.3217              1199.1867
 Red. masses --      1.4001                 1.2007                 1.2679
 Frc consts  --      1.1164                 0.9873                 1.0742
 IR Inten    --      8.5674                 1.0029                 1.3902

                     49                     50                     51
                      A                      A                      A
 Frequencies --   1207.2147              1220.6778              1248.6876
 Red. masses --      1.4849                 1.2956                 1.1907
 Frc consts  --      1.2750                 1.1374                 1.0938
 IR Inten    --      9.1763                 1.1232                11.6063

                     52                     53                     54
                      A                      A                      A
 Frequencies --   1291.8475              1305.8454              1315.2518
 Red. masses --      2.1579                 1.2419                 1.2591
 Frc consts  --      2.1218                 1.2477                 1.2833
 IR Inten    --      1.7668                 7.6093                 0.4984

                     55                     56                     57
                      A                      A                      A
 Frequencies --   1329.9506              1334.7495              1337.1583
 Red. masses --      1.7871                 1.2963                 1.3497
 Frc consts  --      1.8623                 1.3607                 1.4218
 IR Inten    --      2.6331                26.3740                 5.0279

                     58                     59                     60
                      A                      A                      A
 Frequencies --   1373.7552              1398.4758              1424.8093
 Red. masses --      1.2591                 1.9188                 2.7895
 Frc consts  --      1.4000                 2.2109                 3.3365
 IR Inten    --     18.3889                20.1973                13.4727

                     61                     62                     63
                      A                      A                      A
 Frequencies --   1441.8707              1469.2756              1542.6827
 Red. masses --      3.0177                 4.3840                 5.0063
 Frc consts  --      3.6964                 5.5760                 7.0198
 IR Inten    --     36.4083                 2.6627                 5.7191

                     64                     65                     66
                      A                      A                      A
 Frequencies --   1609.8747              1629.7238              1699.1950
 Red. masses --      9.1324                 8.0427                 8.3369
 Frc consts  --     13.9450                12.5858                14.1821
 IR Inten    --      0.0332                 2.9088                 2.8321

                     67                     68                     69
                      A                      A                      A
 Frequencies --   1807.4531              1815.0065              1851.6983
 Red. masses --      9.6920                 8.9756                 9.6938
 Frc consts  --     18.6550                17.4209                19.5832
 IR Inten    --      0.2018                 4.0370                 0.6193

                     70                     71                     72
                      A                      A                      A
 Frequencies --   2625.3622              2831.9827              2863.2069
 Red. masses --      1.0933                 1.0916                 1.0785
 Frc consts  --      4.4397                 5.1579                 5.2093
 IR Inten    --      0.3224                 6.9509                 6.2163

                     73                     74                     75
                      A                      A                      A
 Frequencies --   2942.2123              2948.3103              2949.5244
 Red. masses --      1.0828                 1.0905                 1.0850
 Frc consts  --      5.5224                 5.5848                 5.5613
 IR Inten    --     54.4436                20.7381                25.1814

                     76                     77                     78
                      A                      A                      A
 Frequencies --   2957.2915              2958.5570              2958.6831
 Red. masses --      1.0934                 1.0814                 1.0864
 Frc consts  --      5.6339                 5.5768                 5.6033
 IR Inten    --     27.6277                 9.9048                 9.8589

                     79                     80                     81
                      A                      A                      A
 Frequencies --   2965.9367              2970.9666              2982.5960
 Red. masses --      1.1037                 1.1011                 1.1073
 Frc consts  --      5.7205                 5.7263                 5.8037
 IR Inten    --     50.7333                52.4962                77.5001

                     82                     83                     84
                      A                      A                      A
 Frequencies --   2986.0381              3312.1462              3802.6204
 Red. masses --      1.0960                 1.0788                 1.0670
 Frc consts  --      5.7577                 6.9731                 9.0900
 IR Inten    --      8.2878                 6.1963                17.6841

 - Thermochemistry -
 -------------------
 Temperature   298.150 Kelvin.  Pressure   1.00000 Atm.
 Atom     1 has atomic number  7 and mass  14.00307

 Molecular mass:   201.11536 amu.
 Principal axes and moments of inertia in atomic units:
                           1         2         3
     Eigenvalues --  1442.178735160.853946176.53375
           X            0.99997   0.00812   0.00131
           Y           -0.00811   0.99993  -0.00879
           Z           -0.00138   0.00878   0.99996
 This molecule is an asymmetric top.
 Rotational symmetry number  1.
 Warning -- assumption of classical behavior for rotation
           may cause significant error
 Rotational temperatures (Kelvin)      0.06006     0.01678     0.01402
 Rotational constants (GHZ):           1.25140     0.34970     0.29219
 Zero-point vibrational energy     654875.8 (Joules/Mol)
                                  156.51907 (Kcal/Mol)
 Warning -- explicit consideration of  19 degrees of freedom as
           vibrations may cause significant error
 Vibrational temperatures:     47.94   102.71   161.71   225.20   258.28
          (Kelvin)            268.12   322.59   423.11   439.70   453.13
                              500.80   531.29   560.50   635.74   667.50
                              714.08   718.24   786.89   789.96   939.35
                              949.63   972.08  1066.20  1087.15  1118.12
                             1216.71  1251.13  1274.90  1302.78  1332.69
                             1356.13  1372.76  1376.10  1391.61  1399.06
                             1428.10  1452.30  1486.89  1535.97  1562.82
                             1569.72  1581.74  1606.66  1622.57  1636.74
                             1673.79  1699.66  1725.36  1736.91  1756.28
                             1796.58  1858.68  1878.82  1892.35  1913.50
                             1920.41  1923.87  1976.53  2012.09  2049.98
                             2074.53  2113.96  2219.58  2316.25  2344.81
                             2444.76  2600.52  2611.39  2664.18  3777.31
                             4074.59  4119.52  4233.19  4241.96  4243.71
                             4254.88  4256.70  4256.89  4267.32  4274.56
                             4291.29  4296.24  4765.44  5471.12

 Zero-point correction=                           0.249429 (Hartree/Particle)
 Thermal correction to Energy=                    0.262241
 Thermal correction to Enthalpy=                  0.263186
 Thermal correction to Gibbs Free Energy=         0.210059
 Sum of electronic and zero-point Energies=              0.243919
 Sum of electronic and thermal Energies=                 0.256731
 Sum of electronic and thermal Enthalpies=               0.257676
 Sum of electronic and thermal Free Energies=            0.204550

                     E (Thermal)             CV                S
                      KCal/Mol        Cal/Mol-Kelvin    Cal/Mol-Kelvin
 Total                  164.559             51.841            111.813
 Electronic               0.000              0.000              0.000
 Translational            0.889              2.981             41.801
 Rotational               0.889              2.981             32.197
 Vibrational            162.781             45.879             37.816
 Vibration     1          0.594              1.983              5.621
 Vibration     2          0.598              1.968              4.115
 Vibration     3          0.607              1.939              3.227
 Vibration     4          0.620              1.895              2.591
 Vibration     5          0.629              1.867              2.333
 Vibration     6          0.632              1.859              2.264
 Vibration     7          0.649              1.804              1.925
 Vibration     8          0.689              1.685              1.450
 Vibration     9          0.696              1.663              1.386
 Vibration    10          0.702              1.645              1.336
 Vibration    11          0.726              1.579              1.175
 Vibration    12          0.742              1.535              1.083
 Vibration    13          0.757              1.492              1.002
 Vibration    14          0.802              1.379              0.821
 Vibration    15          0.821              1.330              0.755
 Vibration    16          0.852              1.258              0.667
 Vibration    17          0.855              1.252              0.660
 Vibration    18          0.902              1.146              0.551
 Vibration    19          0.904              1.142              0.546

                           ! Non-Optimized Parameters !
 Normal termination of Gaussian 16 at Wed Dec  6 23:20:36 2017.
