 Gaussian 16, Revision A.03,
 Gaussian 16:  ES64L-G16RevA.03 25-Dec-2016

 ------------------------------------------------------------
 #p pddg scrf=(pcm,solvent=perfluorobenzene) opt freq=noraman
 ------------------------------------------------------------

 ---------
 No Cp cat
 ---------
 Symbolic Z-matrix:
 Charge =  0 Multiplicity = 1

 SCF Done:  E(RPDDG) =  0.196041795578     A.U. after   15 cycles
 SCF Done:  E(RPDDG) =  0.622193351155E-01 A.U. after   14 cycles
 SCF Done:  E(RPDDG) =  0.117625203441E-01 A.U. after   15 cycles
 SCF Done:  E(RPDDG) =  0.332098401191E-02 A.U. after   14 cycles
 SCF Done:  E(RPDDG) = -0.235706735384E-02 A.U. after   14 cycles
 SCF Done:  E(RPDDG) = -0.755649532778E-02 A.U. after   14 cycles
 SCF Done:  E(RPDDG) = -0.132933533718E-01 A.U. after   14 cycles
 SCF Done:  E(RPDDG) = -0.191174065271E-01 A.U. after   14 cycles
 SCF Done:  E(RPDDG) = -0.219699286888E-01 A.U. after   14 cycles
 SCF Done:  E(RPDDG) = -0.257544512398E-01 A.U. after   14 cycles
 SCF Done:  E(RPDDG) = -0.397319905007E-01 A.U. after   12 cycles
 SCF Done:  E(RPDDG) = -0.397446575026E-01 A.U. after   13 cycles
 SCF Done:  E(RPDDG) = -0.397509939556E-01 A.U. after   10 cycles
 SCF Done:  E(RPDDG) = -0.397533992542E-01 A.U. after   11 cycles
 SCF Done:  E(RPDDG) = -0.397543475738E-01 A.U. after    9 cycles
 SCF Done:  E(RPDDG) = -0.397548716105E-01 A.U. after   10 cycles
 SCF Done:  E(RPDDG) = -0.397550857140E-01 A.U. after   10 cycles
 SCF Done:  E(RPDDG) = -0.397550193866E-01 A.U. after    9 cycles
 SCF Done:  E(RPDDG) = -0.397549329664E-01 A.U. after    8 cycles
 Optimization completed.
    -- Stationary point found.
 Normal termination of Gaussian 16 at Sat Dec  2 18:02:30 2017.

 --------------------------------------------------------------
 #P Geom=AllCheck Guess=TCheck SCRF=Check GenChk RPDDG/ZDO Freq
 --------------------------------------------------------------

 Structure from the checkpoint file:  "/scratch/dhuang9_cat4_nocp_isolated/Gau-124022.chk"
 ---------
 No Cp cat
 ---------
 Charge =  0 Multiplicity = 1

                         Standard orientation:
 ---------------------------------------------------------------------
 Center     Atomic      Atomic             Coordinates (Angstroms)
 Number     Number       Type             X           Y           Z
 ---------------------------------------------------------------------
      1          7           0        3.171515    0.349928    1.793379
      2          1           0        2.240228    0.659488    1.938966
      3          1           0        3.714384    1.110838    1.464602
      4          6           0        3.192659   -0.745170    0.814524
      5          1           0        4.246996   -1.075279    0.680360
      6          1           0        2.647999   -1.621232    1.238902
      7          6           0        2.566111   -0.423470   -0.563922
      8          1           0        2.644157   -1.377821   -1.187705
      9          8           0        3.341418    0.597508   -1.144167
     10          1           0        2.876619    0.842809   -1.937331
     11          6           0        1.099852   -0.078793   -0.391155
     12          6           0        0.150480   -1.075508   -0.296054
     13          6           0        0.714985    1.281863   -0.308033
     14          6           0       -1.221785   -0.730636   -0.094674
     15          6           0       -0.601573    1.633369   -0.146949
     16          1           0        1.482220    2.075833   -0.370168
     17          6           0       -2.222921   -1.730383    0.056630
     18          6           0       -1.602036    0.624881   -0.034952
     19          6           0       -3.535585   -1.381858    0.233764
     20          1           0       -1.961645   -2.801357    0.044552
     21          6           0       -2.971590    0.960997    0.144318
     22          6           0       -3.915982   -0.022410    0.271755
     23          1           0       -4.306253   -2.158230    0.350584
     24          1           0       -3.288477    2.016591    0.183997
     25          1           0       -4.976277    0.236333    0.409220
     26          6           0        0.518547   -2.515251   -0.397952
     27          1           0        1.581817   -2.682346   -0.646477
     28          1           0        0.326301   -3.038822    0.548120
     29          1           0       -0.061739   -3.027373   -1.177853
     30          6           0       -0.975986    3.071275   -0.080274
     31          1           0       -1.682425    3.336037   -0.878674
     32          1           0       -1.469290    3.311245    0.871418
     33          1           0       -0.117620    3.750297   -0.174992
 ---------------------------------------------------------------------

 SCF Done:  E(RPDDG) = -0.397549329678E-01 A.U. after    2 cycles

 The electronic state is 1-A.
 Alpha  occ. eigenvalues --   -1.58734  -1.46347  -1.33265  -1.31512  -1.21801
 Alpha  occ. eigenvalues --   -1.09852  -1.08137  -1.07032  -0.95638  -0.89544
 Alpha  occ. eigenvalues --   -0.84090  -0.82055  -0.76520  -0.73435  -0.68663
 Alpha  occ. eigenvalues --   -0.66954  -0.64538  -0.62936  -0.60631  -0.58819
 Alpha  occ. eigenvalues --   -0.58185  -0.56569  -0.55554  -0.55185  -0.54432
 Alpha  occ. eigenvalues --   -0.53600  -0.53214  -0.50616  -0.50191  -0.49444
 Alpha  occ. eigenvalues --   -0.48808  -0.48608  -0.48318  -0.46117  -0.44648
 Alpha  occ. eigenvalues --   -0.44523  -0.43208  -0.41066  -0.38363  -0.35323
 Alpha  occ. eigenvalues --   -0.34600  -0.32041
 Alpha virt. eigenvalues --   -0.02168  -0.00326   0.03335   0.06457   0.07997
 Alpha virt. eigenvalues --    0.09094   0.09556   0.10349   0.10755   0.10882
 Alpha virt. eigenvalues --    0.11057   0.11849   0.12358   0.13457   0.13758

 Mulliken charges:
               1
     1  N   -0.110815
     2  H    0.069730
     3  H    0.068974
     4  C   -0.216948
     5  H    0.112940
     6  H    0.112675
     7  C    0.043095
     8  H    0.110007
     9  O   -0.319174
    10  H    0.214639
    11  C   -0.136902
    12  C   -0.035071
    13  C   -0.165891
    14  C   -0.030546
    15  C   -0.045255
    16  H    0.168049
    17  C   -0.145778
    18  C   -0.033045
    19  C   -0.152120
    20  H    0.161216
    21  C   -0.143911
    22  C   -0.152159
    23  H    0.155207
    24  H    0.161460
    25  H    0.155459
    26  C   -0.246819
    27  H    0.108866
    28  H    0.109281
    29  H    0.106381
    30  C   -0.233298
    31  H    0.103738
    32  H    0.104497
    33  H    0.101520
 Sum of Mulliken charges =   0.00000

 Dipole moment (field-independent basis, Debye):
    X=             -2.2725    Y=             -0.3196    Z=             -1.7763  Tot=              2.9020
 N-N= 5.945468366802D+02 E-N=-9.954435555369D+02  KE=-1.350711976858D+02
  Exact polarizability: 205.014   8.903 165.124 -16.423   0.046  56.228
 Approx polarizability: 144.617   6.819 126.916 -13.947  -0.242  38.361
 Leave Link  601 at Sat Dec  2 18:02:56 2017, MaxMem=   402653184 cpu:               0.2 elap:               0.1
 (Enter /n/sw/g16_nehalem/g16/l701.exe)
 ... and contract with generalized density number  0.
 Compute integral second derivatives.
 D2PCM: PCM CHGder 2nd derivatives, FixD1E=F FixD2E=F DoIter=F DoCFld=F I1PDM=0
 GePol: Maximum number of non-zero 2nd derivatives   =     189
 Leave Link  701 at Sat Dec  2 18:03:02 2017, MaxMem=   402653184 cpu:              21.2 elap:               5.3

                      1                      2                      3
                      A                      A                      A
 Frequencies --     36.5429                67.0409                89.8837
 Red. masses --      4.2730                 3.7307                 2.4262
 Frc consts  --      0.0034                 0.0099                 0.0115
 IR Inten    --      0.6326                 0.4479                 2.7080

                      4                      5                      6
                      A                      A                      A
 Frequencies --    116.4577               141.5382               181.1142
 Red. masses --      2.8048                 2.9269                 3.4384
 Frc consts  --      0.0224                 0.0345                 0.0665
 IR Inten    --      0.8403                 2.4303                 3.2508

                      7                      8                      9
                      A                      A                      A
 Frequencies --    236.3247               256.2155               285.1641
 Red. masses --      6.3775                 2.7270                 1.2631
 Frc consts  --      0.2099                 0.1055                 0.0605
 IR Inten    --     10.1574                 0.9783                 9.8350

                     10                     11                     12
                      A                      A                      A
 Frequencies --    304.0530               313.0018               335.0032
 Red. masses --      2.0381                 1.2539                 2.1407
 Frc consts  --      0.1110                 0.0724                 0.1415
 IR Inten    --     23.2244                 1.1829                12.4597

                     13                     14                     15
                      A                      A                      A
 Frequencies --    370.2345               372.6568               392.0531
 Red. masses --      2.6855                 3.0806                 2.4338
 Frc consts  --      0.2169                 0.2521                 0.2204
 IR Inten    --      6.1786                11.5422                45.1483

                     16                     17                     18
                      A                      A                      A
 Frequencies --    407.0399               442.9215               452.3288
 Red. masses --      2.1785                 2.0115                 2.1446
 Frc consts  --      0.2127                 0.2325                 0.2585
 IR Inten    --     25.8297                25.9207                27.3760

                     19                     20                     21
                      A                      A                      A
 Frequencies --    496.5169               506.5509               522.2444
 Red. masses --      3.5364                 4.2215                 2.7235
 Frc consts  --      0.5137                 0.6382                 0.4377
 IR Inten    --      5.7881                 4.2146                11.9301

                     22                     23                     24
                      A                      A                      A
 Frequencies --    578.7558               587.0945               610.5352
 Red. masses --      2.5026                 5.1209                 3.8824
 Frc consts  --      0.4939                 1.0400                 0.8527
 IR Inten    --      0.8614                 0.8909                 2.6814

                     25                     26                     27
                      A                      A                      A
 Frequencies --    658.6934               672.5075               753.1873
 Red. masses --      5.0966                 3.6098                 3.6053
 Frc consts  --      1.3029                 0.9619                 1.2050
 IR Inten    --      1.6028                 5.7325                 5.8567

                     28                     29                     30
                      A                      A                      A
 Frequencies --    776.4839               784.3120               827.9439
 Red. masses --      2.2121                 1.2718                 4.4807
 Frc consts  --      0.7858                 0.4609                 1.8097
 IR Inten    --      6.2775               108.1126                 1.2881

                     31                     32                     33
                      A                      A                      A
 Frequencies --    875.7901               889.4011               900.2682
 Red. masses --      4.6678                 1.6473                 1.5339
 Frc consts  --      2.1094                 0.7678                 0.7325
 IR Inten    --      1.3863                 1.5474                13.7255

                     34                     35                     36
                      A                      A                      A
 Frequencies --    912.6028               943.4480               956.5599
 Red. masses --      1.3627                 2.5892                 1.5025
 Frc consts  --      0.6687                 1.3578                 0.8100
 IR Inten    --      3.2884                14.3108                 7.6124

                     37                     38                     39
                      A                      A                      A
 Frequencies --    988.9209               992.8073              1000.6586
 Red. masses --      1.7578                 1.5782                 1.6697
 Frc consts  --      1.0128                 0.9165                 0.9850
 IR Inten    --      0.3483                 4.7740                 3.7606

                     40                     41                     42
                      A                      A                      A
 Frequencies --   1001.8017              1032.9754              1046.3000
 Red. masses --      1.6317                 1.2737                 1.2353
 Frc consts  --      0.9649                 0.8007                 0.7968
 IR Inten    --     27.1712                 2.9939                 1.9222

                     43                     44                     45
                      A                      A                      A
 Frequencies --   1059.5857              1099.3287              1101.1318
 Red. masses --      1.5135                 1.1899                 1.5160
 Frc consts  --      1.0011                 0.8473                 1.0830
 IR Inten    --      4.6145                 8.9043                16.0387

                     46                     47                     48
                      A                      A                      A
 Frequencies --   1111.8544              1120.4497              1157.1650
 Red. masses --      1.3724                 1.3696                 1.2121
 Frc consts  --      0.9996                 1.0130                 0.9563
 IR Inten    --      2.9481                63.6296                10.1190

                     49                     50                     51
                      A                      A                      A
 Frequencies --   1175.4736              1188.7428              1212.7681
 Red. masses --      1.2061                 2.0279                 1.9171
 Frc consts  --      0.9819                 1.6884                 1.6613
 IR Inten    --      7.8806                 4.9715                 9.7260

                     52                     53                     54
                      A                      A                      A
 Frequencies --   1234.1518              1239.5611              1271.4624
 Red. masses --      1.2263                 1.5295                 1.1950
 Frc consts  --      1.1005                 1.3847                 1.1383
 IR Inten    --      3.7408                13.2901                 3.8513

                     55                     56                     57
                      A                      A                      A
 Frequencies --   1297.2473              1301.2811              1309.5719
 Red. masses --      1.1483                 1.6364                 1.8363
 Frc consts  --      1.1385                 1.6326                 1.8555
 IR Inten    --      4.1962                52.4078                 3.4622

                     58                     59                     60
                      A                      A                      A
 Frequencies --   1316.9478              1324.3593              1329.3877
 Red. masses --      1.0563                 1.3483                 1.2258
 Frc consts  --      1.0794                 1.3933                 1.2763
 IR Inten    --      7.8141                17.9433                24.7064

                     61                     62                     63
                      A                      A                      A
 Frequencies --   1356.8713              1366.4187              1393.7299
 Red. masses --      2.0965                 1.8237                 1.5691
 Frc consts  --      2.2741                 2.0062                 1.7957
 IR Inten    --      3.5142                 0.6437                 5.3135

                     64                     65                     66
                      A                      A                      A
 Frequencies --   1412.9811              1443.4035              1456.5148
 Red. masses --      1.7283                 1.4324                 1.4139
 Frc consts  --      2.0330                 1.7583                 1.7672
 IR Inten    --     31.9859                48.2090                12.9769

                     67                     68                     69
                      A                      A                      A
 Frequencies --   1503.1982              1516.1548              1550.9480
 Red. masses --      5.2493                 2.7771                 6.9234
 Frc consts  --      6.9884                 3.7612                 9.8122
 IR Inten    --     25.2599                10.1113                16.4247

                     70                     71                     72
                      A                      A                      A
 Frequencies --   1617.8799              1646.0937              1654.9528
 Red. masses --      9.0700                 1.1476                 7.2544
 Frc consts  --     13.9879                 1.8321                11.7063
 IR Inten    --      3.1217                 7.3839                12.2148

                     73                     74                     75
                      A                      A                      A
 Frequencies --   1716.1037              1815.4203              1821.1492
 Red. masses --      8.8937                10.3501                 9.0353
 Frc consts  --     15.4319                20.0978                17.6557
 IR Inten    --      1.3802                 2.9257                10.5931

                     76                     77                     78
                      A                      A                      A
 Frequencies --   1848.7755              2574.0222              2831.2519
 Red. masses --      9.7117                 1.0932                 1.0785
 Frc consts  --     19.5576                 4.2676                 5.0935
 IR Inten    --      3.0495                 2.4754                 6.5368

                     79                     80                     81
                      A                      A                      A
 Frequencies --   2862.4238              2924.1120              2947.2229
 Red. masses --      1.0916                 1.0989                 1.0949
 Frc consts  --      5.2698                 5.5362                 5.6033
 IR Inten    --     12.0745                72.2695                63.5852

                     82                     83                     84
                      A                      A                      A
 Frequencies --   2948.4529              2951.0935              2967.8140
 Red. masses --      1.0946                 1.0855                 1.0995
 Frc consts  --      5.6067                 5.5699                 5.7056
 IR Inten    --      8.9228                19.5029                64.8257

                     85                     86                     87
                      A                      A                      A
 Frequencies --   2979.8511              2999.0591              3000.8817
 Red. masses --      1.1065                 1.1011                 1.1002
 Frc consts  --      5.7891                 5.8350                 5.8376
 IR Inten    --    103.4021                 9.7091                11.3089

                     88                     89                     90
                      A                      A                      A
 Frequencies --   3003.5569              3006.9450              3014.0414
 Red. masses --      1.0532                 1.0983                 1.0404
 Frc consts  --      5.5981                 5.8511                 5.5687
 IR Inten    --      9.4570                 7.3300                 9.5409

                     91                     92                     93
                      A                      A                      A
 Frequencies --   3347.4697              3488.3901              3795.8028
 Red. masses --      1.0989                 1.0420                 1.0667
 Frc consts  --      7.2551                 7.4707                 9.0551
 IR Inten    --      1.3413                10.7883                22.8867

 - Thermochemistry -
 -------------------
 Temperature   298.150 Kelvin.  Pressure   1.00000 Atm.
 Atom     1 has atomic number  7 and mass  14.00307

 Molecular mass:   215.13101 amu.
 Principal axes and moments of inertia in atomic units:
                           1         2         3
     Eigenvalues --  1952.233644785.013985999.61188
           X            0.99991  -0.01300   0.00160
           Y            0.01299   0.99990   0.00552
           Z           -0.00167  -0.00550   0.99998
 This molecule is an asymmetric top.
 Rotational symmetry number  1.
 Warning -- assumption of classical behavior for rotation
           may cause significant error
 Rotational temperatures (Kelvin)      0.04437     0.01810     0.01444
 Rotational constants (GHZ):           0.92445     0.37717     0.30081
 Zero-point vibrational energy     734084.8 (Joules/Mol)
                                  175.45047 (Kcal/Mol)
 Warning -- explicit consideration of  24 degrees of freedom as
           vibrations may cause significant error
 Vibrational temperatures:     52.58    96.46   129.32   167.56   203.64
          (Kelvin)            260.58   340.02   368.64   410.29   437.46
                              450.34   481.99   532.68   536.17   564.08
                              585.64   637.27   650.80   714.38   728.81
                              751.39   832.70   844.70   878.42   947.71
                              967.59  1083.67  1117.19  1128.45  1191.23
                             1260.07  1279.65  1295.29  1313.03  1357.41
                             1376.28  1422.84  1428.43  1439.72  1441.37
                             1486.22  1505.39  1524.51  1581.69  1584.28
                             1599.71  1612.08  1664.90  1691.24  1710.34
                             1744.90  1775.67  1783.45  1829.35  1866.45
                             1872.25  1884.18  1894.79  1905.46  1912.69
                             1952.24  1965.97  2005.27  2032.96  2076.74
                             2095.60  2162.77  2181.41  2231.47  2327.77
                             2368.36  2381.11  2469.09  2611.98  2620.23
                             2659.98  3703.44  4073.54  4118.39  4207.14
                             4240.40  4242.17  4245.97  4270.02  4287.34
                             4314.98  4317.60  4321.45  4326.32  4336.53
                             4816.26  5019.02  5461.31

 Zero-point correction=                           0.279598 (Hartree/Particle)
 Thermal correction to Energy=                    0.293881
 Thermal correction to Enthalpy=                  0.294825
 Thermal correction to Gibbs Free Energy=         0.238844
 Sum of electronic and zero-point Energies=              0.239843
 Sum of electronic and thermal Energies=                 0.254126
 Sum of electronic and thermal Enthalpies=               0.255070
 Sum of electronic and thermal Free Energies=            0.199089

                     E (Thermal)             CV                S
                      KCal/Mol        Cal/Mol-Kelvin    Cal/Mol-Kelvin
 Total                  184.413             57.647            117.822
 Electronic               0.000              0.000              0.000
 Translational            0.889              2.981             42.002
 Rotational               0.889              2.981             32.394
 Vibrational            182.635             51.686             43.427
 Vibration     1          0.594              1.982              5.438
 Vibration     2          0.598              1.970              4.238
 Vibration     3          0.602              1.956              3.663
 Vibration     4          0.608              1.936              3.158
 Vibration     5          0.615              1.912              2.783
 Vibration     6          0.630              1.865              2.317
 Vibration     7          0.655              1.785              1.830
 Vibration     8          0.666              1.752              1.687
 Vibration     9          0.683              1.701              1.502
 Vibration    10          0.695              1.666              1.394
 Vibration    11          0.701              1.649              1.346
 Vibration    12          0.716              1.606              1.236
 Vibration    13          0.742              1.533              1.079
 Vibration    14          0.744              1.528              1.069
 Vibration    15          0.759              1.487              0.992
 Vibration    16          0.772              1.455              0.937
 Vibration    17          0.803              1.377              0.817
 Vibration    18          0.811              1.356              0.789
 Vibration    19          0.852              1.258              0.667
 Vibration    20          0.862              1.235              0.642
 Vibration    21          0.877              1.201              0.605
 Vibration    22          0.935              1.077              0.488
 Vibration    23          0.944              1.059              0.472
 Vibration    24          0.970              1.010              0.432

                           ! Non-Optimized Parameters !
 Normal termination of Gaussian 16 at Sat Dec  2 18:03:02 2017.
