 Gaussian 16, Revision A.03,
 Gaussian 16:  ES64L-G16RevA.03 25-Dec-2016

 ----------------------------------------------------------------------
 #p b3lyp empiricaldispersion=gd3bj 6-31g opt=modredundant freq=noraman
 ----------------------------------------------------------------------

 ---------
 TS Freeze
 ---------
 Symbolic Z-matrix:
 Charge =  0 Multiplicity = 1

 SCF Done:  E(RB3LYP) =  -1074.35454753     A.U. after   19 cycles
 SCF Done:  E(RB3LYP) =  -1074.37027730     A.U. after   17 cycles
 SCF Done:  E(RB3LYP) =  -1074.27667922     A.U. after   19 cycles
 SCF Done:  E(RB3LYP) =  -1074.35683694     A.U. after   16 cycles
 SCF Done:  E(RB3LYP) =  -1074.37300075     A.U. after   15 cycles
 SCF Done:  E(RB3LYP) =  -1074.37551437     A.U. after   15 cycles
 SCF Done:  E(RB3LYP) =  -1074.37674619     A.U. after   17 cycles
 SCF Done:  E(RB3LYP) =  -1074.37979913     A.U. after   17 cycles
 SCF Done:  E(RB3LYP) =  -1074.37940390     A.U. after   16 cycles
 SCF Done:  E(RB3LYP) =  -1074.38068523     A.U. after   15 cycles
 SCF Done:  E(RB3LYP) =  -1074.39036032     A.U. after    9 cycles
 SCF Done:  E(RB3LYP) =  -1074.39037454     A.U. after    9 cycles
 SCF Done:  E(RB3LYP) =  -1074.39038133     A.U. after    9 cycles
 SCF Done:  E(RB3LYP) =  -1074.39038447     A.U. after    9 cycles
 SCF Done:  E(RB3LYP) =  -1074.39038772     A.U. after    9 cycles
 SCF Done:  E(RB3LYP) =  -1074.39038924     A.U. after    9 cycles
 SCF Done:  E(RB3LYP) =  -1074.39038980     A.U. after    8 cycles
 SCF Done:  E(RB3LYP) =  -1074.39039027     A.U. after    9 cycles
 SCF Done:  E(RB3LYP) =  -1074.39039030     A.U. after    7 cycles
 Optimization completed.
    -- Stationary point found.

 1\1\GINC-HOLY7C17111\FOpt\RB3LYP\6-31G\C21H24N2O2\ROOT\05-Dec-2017\0\\
 #p b3lyp empiricaldispersion=gd3bj 6-31g opt=modredundant freq=noraman
 \\TS Freeze\\0,1\N,-2.8532678085,0.1606847124,1.8289129166\H,-2.907367
 1953,-0.6447336081,1.2073020998\H,-3.3073178149,0.0092155278,2.7213966
 228\C,-3.199909666,1.4201786602,1.1650744665\H,-4.2859329983,1.5943358
 308,1.0917025475\H,-2.7759626194,2.2624007517,1.7306052854\O,-3.377737
 0889,0.5227555113,-1.1250181063\H,-3.023622621,-0.4001895001,-0.959366
 2441\C,-1.1652517161,1.2961715925,-0.426519272\C,-0.2798587883,1.32970

 Normal termination of Gaussian 16 at Tue Dec  5 21:46:57 2017.

 -----------------------------------------------------------------
 #P Geom=AllCheck Guess=TCheck SCRF=Check GenChk RB3LYP/6-31G Freq
 -----------------------------------------------------------------

 Structure from the checkpoint file:  "/scratch/dhuang9_oac_cat3_nocp_pyrrole_freeze_bl/Gau-40499.chk"
 ---------
 TS Freeze
 ---------
 Charge =  0 Multiplicity = 1

                         Standard orientation:
 ---------------------------------------------------------------------
 Center     Atomic      Atomic             Coordinates (Angstroms)
 Number     Number       Type             X           Y           Z
 ---------------------------------------------------------------------
      1          7           0       -1.675439    1.774847    1.392687
      2          1           0       -1.931470    1.513576    0.441787
      3          1           0       -2.445164    1.708453    2.047475
      4          6           0       -0.915230    3.025871    1.457388
      5          1           0       -1.548011    3.927635    1.417756
      6          1           0       -0.354749    3.066772    2.402419
      7          8           0       -0.635529    3.342541   -0.972222
      8          1           0       -0.992102    2.460291   -1.287111
      9          6           0        1.089357    2.030708    0.161369
     10          6           0        1.301268    1.076153    1.139708
     11          6           0        1.853398    1.971028   -1.037716
     12          6           0        2.274901    0.051913    0.973892
     13          1           0        0.688942    1.071733    2.032448
     14          6           0        2.797629    0.985805   -1.234803
     15          1           0        1.647277    2.706285   -1.806635
     16          6           0        2.492947   -0.946708    1.964088
     17          6           0        3.043113    0.000976   -0.237632
     18          1           0        3.371837    0.951479   -2.156436
     19          6           0        3.419501   -1.953611    1.766788
     20          1           0        1.913596   -0.902549    2.881856
     21          6           0        3.994160   -1.042580   -0.408512
     22          6           0        4.177842   -2.002330    0.568911
     23          1           0        3.575461   -2.708285    2.530667
     24          1           0        4.576947   -1.071744   -1.324963
     25          1           0        4.905979   -2.793980    0.426793
     26          6           0       -0.832299   -0.204486   -1.291987
     27          6           0       -0.927458   -1.094561   -0.157014
     28          6           0        0.001671   -2.251223   -0.287255
     29          6           0        0.665599   -2.060595   -1.678836
     30          6           0        0.129644   -0.750503   -2.150772
     31          1           0       -1.385624   -0.791282    0.775722
     32          1           0        0.756171   -2.217015    0.511140
     33          1           0       -0.511668   -3.213823   -0.181746
     34          1           0        1.759903   -2.058454   -1.594720
     35          1           0        0.412154   -2.877004   -2.373562
     36          1           0        0.451042   -0.264747   -3.063306
     37          8           0       -1.564746    0.879389   -1.459257
     38          6           0        0.068263    3.153174    0.284092
     39          1           0        0.613246    4.095126    0.430498
     40          6           0       -4.110146   -1.619625    1.367016
     41          6           0       -4.195770   -0.390299    0.710912
     42          6           0       -3.484897   -2.529278    0.476305
     43          1           0       -3.284009   -3.574325    0.656929
     44          6           0       -3.187958   -1.830891   -0.699389
     45          1           0       -2.841541   -2.189019   -1.653252
     46          7           0       -3.668033   -0.531157   -0.548304
     47          1           0       -4.459523   -1.830542    2.365639
     48          1           0       -4.565920    0.560962    1.056738
     49          1           0       -3.279484    0.235568   -1.114327
 ---------------------------------------------------------------------

 SCF Done:  E(RB3LYP) =  -1074.39039030     A.U. after    1 cycles

 The electronic state is 1-A.
 Alpha  occ. eigenvalues --  -19.08781 -19.08727 -14.37296 -14.28296 -10.24315
 Alpha  occ. eigenvalues --  -10.23915 -10.22408 -10.22275 -10.21587 -10.21168
 Alpha  occ. eigenvalues --  -10.20359 -10.20235 -10.19676 -10.19607 -10.19357
 Alpha  occ. eigenvalues --  -10.19324 -10.19273 -10.19207 -10.18951 -10.18823
 Alpha  occ. eigenvalues --  -10.18678 -10.18525 -10.18438 -10.17957 -10.17865
 Alpha  occ. eigenvalues --   -0.99089  -0.97915  -0.96716  -0.87775  -0.86268
 Alpha  occ. eigenvalues --   -0.85837  -0.82458  -0.78368  -0.77727  -0.75183
 Alpha  occ. eigenvalues --   -0.74007  -0.72638  -0.72597  -0.71026  -0.69413
 Alpha  occ. eigenvalues --   -0.63412  -0.61450  -0.60034  -0.59706  -0.59136
 Alpha  occ. eigenvalues --   -0.57863  -0.57302  -0.56012  -0.54213  -0.51846
 Alpha  occ. eigenvalues --   -0.51040  -0.49519  -0.49079  -0.48486  -0.48121
 Alpha  occ. eigenvalues --   -0.45371  -0.45192  -0.45007  -0.44079  -0.43474
 Alpha  occ. eigenvalues --   -0.42799  -0.42202  -0.41946  -0.41314  -0.41009
 Alpha  occ. eigenvalues --   -0.40586  -0.39953  -0.39319  -0.39242  -0.38622
 Alpha  occ. eigenvalues --   -0.38256  -0.38160  -0.37781  -0.37264  -0.36540
 Alpha  occ. eigenvalues --   -0.35833  -0.35593  -0.34243  -0.32800  -0.31814
 Alpha  occ. eigenvalues --   -0.28425  -0.28073  -0.25942  -0.24789  -0.24006
 Alpha  occ. eigenvalues --   -0.23228  -0.22444  -0.21816  -0.20209  -0.19830
 Alpha virt. eigenvalues --   -0.10190  -0.03772  -0.00770   0.02533   0.03202
 Alpha virt. eigenvalues --    0.06042   0.07016   0.08537   0.08911   0.09606
 Alpha virt. eigenvalues --    0.09904   0.11521   0.11732   0.13045   0.13256

 Mulliken charges:
               1
     1  N   -0.753451
     2  H    0.310813
     3  H    0.266041
     4  C   -0.094101
     5  H    0.125366
     6  H    0.114844
     7  O   -0.643003
     8  H    0.403055
     9  C    0.060654
    10  C   -0.167154
    11  C   -0.138161
    12  C    0.050050
    13  H    0.157091
    14  C   -0.168630
    15  H    0.154551
    16  C   -0.172161
    17  C    0.071291
    18  H    0.125518
    19  C   -0.135067
    20  H    0.132681
    21  C   -0.168767
    22  C   -0.131955
    23  H    0.125550
    24  H    0.129192
    25  H    0.125172
    26  C    0.334770
    27  C   -0.046828
    28  C   -0.340511
    29  C   -0.329660
    30  C   -0.067098
    31  H    0.203452
    32  H    0.200662
    33  H    0.164345
    34  H    0.181608
    35  H    0.155569
    36  H    0.153616
    37  O   -0.687899
    38  C    0.022411
    39  H    0.147438
    40  C   -0.172672
    41  C    0.078862
    42  C   -0.138810
    43  H    0.133731
    44  C    0.003507
    45  H    0.166009
    46  N   -0.608286
    47  H    0.135029
    48  H    0.159231
    49  H    0.372110
 Sum of Mulliken charges =   0.00000

 Dipole moment (field-independent basis, Debye):
    X=              0.9269    Y=             -5.5168    Z=              1.3619  Tot=              5.7576
 Quadrupole moment (field-independent basis, Debye-Ang):
   XX=           -144.9717   YY=           -149.9752   ZZ=           -140.5888
   XY=             -2.1523   XZ=            -10.5205   YZ=              8.2262

  Exact polarizability: 294.575 -37.003 247.959 -47.543 -20.614 215.633
 Approx polarizability: 466.218 -88.574 420.380-128.788 -71.562 434.681

                      1                      2                      3
                      A                      A                      A
 Frequencies --     17.0847                31.1722                46.2179
 Red. masses --      5.3927                 4.5115                 5.5154
 Frc consts  --      0.0009                 0.0026                 0.0069
 IR Inten    --      9.9527                43.6927                22.6808

                      4                      5                      6
                      A                      A                      A
 Frequencies --     58.2724                62.5843                87.2270
 Red. masses --      5.6216                 4.3597                 5.0710
 Frc consts  --      0.0112                 0.0101                 0.0227
 IR Inten    --     12.1469                12.2016                33.1453

                      7                      8                      9
                      A                      A                      A
 Frequencies --     94.4018               106.0006               111.3440
 Red. masses --      4.2547                 5.2636                 4.2780
 Frc consts  --      0.0223                 0.0348                 0.0312
 IR Inten    --      3.1019                20.5074                 1.6653

                     10                     11                     12
                      A                      A                      A
 Frequencies --    128.9021               136.7570               145.9195
 Red. masses --      4.1633                 4.5337                 4.0106
 Frc consts  --      0.0408                 0.0500                 0.0503
 IR Inten    --      7.9983                12.1400                 3.1623

                     13                     14                     15
                      A                      A                      A
 Frequencies --    158.6253               177.4252               198.2041
 Red. masses --      4.5158                 3.7597                 3.5777
 Frc consts  --      0.0669                 0.0697                 0.0828
 IR Inten    --      2.9880                 1.1020                 3.6381

                     16                     17                     18
                      A                      A                      A
 Frequencies --    203.0672               220.8905               243.8058
 Red. masses --      3.7011                 3.4209                 2.8195
 Frc consts  --      0.0899                 0.0983                 0.0987
 IR Inten    --      9.4505                 1.9207                 1.4393

                     19                     20                     21
                      A                      A                      A
 Frequencies --    266.4151               287.1970               319.1511
 Red. masses --      2.5741                 4.6700                 4.2061
 Frc consts  --      0.1076                 0.2269                 0.2524
 IR Inten    --     16.8978                 5.5257                78.0667

                     22                     23                     24
                      A                      A                      A
 Frequencies --    320.4241               370.8444               398.2831
 Red. masses --      4.3775                 3.7807                 1.1475
 Frc consts  --      0.2648                 0.3063                 0.1072
 IR Inten    --      5.4469                 2.6246                62.7006

                     25                     26                     27
                      A                      A                      A
 Frequencies --    410.2415               444.5915               463.5286
 Red. masses --      3.0881                 3.4305                 5.1410
 Frc consts  --      0.3062                 0.3995                 0.6508
 IR Inten    --      0.9936                 0.4054                13.0127

                     28                     29                     30
                      A                      A                      A
 Frequencies --    492.3510               499.8499               539.4201
 Red. masses --      2.9582                 3.2405                 6.8253
 Frc consts  --      0.4225                 0.4770                 1.1701
 IR Inten    --     10.0569                 4.4486                 0.2174

                     31                     32                     33
                      A                      A                      A
 Frequencies --    561.0894               608.0817               622.0303
 Red. masses --      3.7570                 2.8432                 3.3785
 Frc consts  --      0.6969                 0.6194                 0.7702
 IR Inten    --      0.6354                11.5333                42.9862

                     34                     35                     36
                      A                      A                      A
 Frequencies --    629.5545               635.2659               653.3318
 Red. masses --      4.0788                 3.1562                 4.0922
 Frc consts  --      0.9525                 0.7504                 1.0291
 IR Inten    --     11.4304                 8.1507                 0.7613

                     37                     38                     39
                      A                      A                      A
 Frequencies --    663.5399               680.0449               735.8977
 Red. masses --      6.8841                 4.6927                 1.4716
 Frc consts  --      1.7858                 1.2786                 0.4695
 IR Inten    --     15.1387                 4.0588               104.5061

                     40                     41                     42
                      A                      A                      A
 Frequencies --    744.7720               762.6846               771.6301
 Red. masses --      1.4856                 1.3078                 1.2688
 Frc consts  --      0.4855                 0.4482                 0.4451
 IR Inten    --     25.7724                96.7428                26.9608

                     43                     44                     45
                      A                      A                      A
 Frequencies --    779.6693               787.2097               790.4530
 Red. masses --      1.4255                 3.1447                 2.4003
 Frc consts  --      0.5106                 1.1482                 0.8836
 IR Inten    --     63.4862                13.2787                28.7490

                     46                     47                     48
                      A                      A                      A
 Frequencies --    796.6221               802.3371               808.5333
 Red. masses --      4.2853                 1.5174                 1.8244
 Frc consts  --      1.6023                 0.5755                 0.7027
 IR Inten    --      2.3977               147.5995               153.2215

                     49                     50                     51
                      A                      A                      A
 Frequencies --    856.9496               863.2852               866.8075
 Red. masses --      1.2610                 1.3262                 1.3733
 Frc consts  --      0.5456                 0.5823                 0.6079
 IR Inten    --    160.1890                25.8961                12.6681

                     52                     53                     54
                      A                      A                      A
 Frequencies --    870.6003               883.5917               906.3143
 Red. masses --      1.9796                 1.3833                 1.8123
 Frc consts  --      0.8840                 0.6363                 0.8771
 IR Inten    --     21.7718               101.9915                58.3508

                     55                     56                     57
                      A                      A                      A
 Frequencies --    913.2959               915.4811               918.0761
 Red. masses --      4.2751                 2.7241                 2.7004
 Frc consts  --      2.1010                 1.3452                 1.3410
 IR Inten    --      2.9406                12.7649                 1.7845

                     58                     59                     60
                      A                      A                      A
 Frequencies --    922.2304               932.4632               951.5736
 Red. masses --      1.5707                 1.8353                 1.4077
 Frc consts  --      0.7871                 0.9402                 0.7510
 IR Inten    --      0.8307                13.8884                 2.5535

                     61                     62                     63
                      A                      A                      A
 Frequencies --    958.2431               984.6265               988.9258
 Red. masses --      2.2893                 1.5986                 2.7590
 Frc consts  --      1.2385                 0.9131                 1.5897
 IR Inten    --     71.0456                 8.7522                 6.1715

                     64                     65                     66
                      A                      A                      A
 Frequencies --    994.2928              1002.6203              1007.2908
 Red. masses --      2.7706                 1.7649                 2.8811
 Frc consts  --      1.6138                 1.0453                 1.7224
 IR Inten    --      8.0549                 9.6081                26.5177

                     67                     68                     69
                      A                      A                      A
 Frequencies --   1015.5750              1022.8440              1037.7136
 Red. masses --      1.3712                 1.3364                 1.8760
 Frc consts  --      0.8333                 0.8237                 1.1903
 IR Inten    --      4.1010                 1.0359                30.8146

                     70                     71                     72
                      A                      A                      A
 Frequencies --   1059.4398              1066.5088              1087.9553
 Red. masses --      2.3866                 1.4868                 1.4313
 Frc consts  --      1.5783                 0.9964                 0.9982
 IR Inten    --      0.9428                27.5996                25.0375

                     73                     74                     75
                      A                      A                      A
 Frequencies --   1092.2121              1111.7785              1123.5763
 Red. masses --      2.0370                 1.6464                 1.3397
 Frc consts  --      1.4317                 1.1990                 0.9965
 IR Inten    --     13.6607                 1.4136                15.0408

                     76                     77                     78
                      A                      A                      A
 Frequencies --   1131.3389              1170.3461              1172.2847
 Red. masses --      3.3799                 1.1874                 1.7207
 Frc consts  --      2.5488                 0.9583                 1.3932
 IR Inten    --     15.2742                 7.1319                 4.8460

                     79                     80                     81
                      A                      A                      A
 Frequencies --   1187.4910              1200.5720              1206.9536
 Red. masses --      4.1337                 1.3428                 1.2313
 Frc consts  --      3.4344                 1.1404                 1.0568
 IR Inten    --     11.9793                 1.3255                 0.3579

                     82                     83                     84
                      A                      A                      A
 Frequencies --   1218.0348              1219.8754              1230.0489
 Red. masses --      1.1426                 1.1445                 1.5618
 Frc consts  --      0.9988                 1.0035                 1.3923
 IR Inten    --      2.2933                23.0905                18.5134

                     85                     86                     87
                      A                      A                      A
 Frequencies --   1234.2842              1263.3186              1267.2799
 Red. masses --      1.6843                 2.3463                 2.5842
 Frc consts  --      1.5118                 2.2063                 2.4453
 IR Inten    --     15.6076                35.7132                 4.0666

                     88                     89                     90
                      A                      A                      A
 Frequencies --   1285.7536              1292.9175              1311.9753
 Red. masses --      1.1107                 1.7105                 1.5872
 Frc consts  --      1.0818                 1.6847                 1.6096
 IR Inten    --      7.0880                45.1081                 1.5478

                     91                     92                     93
                      A                      A                      A
 Frequencies --   1328.5065              1329.8335              1345.8539
 Red. masses --      1.9094                 1.5147                 1.4667
 Frc consts  --      1.9855                 1.5782                 1.5652
 IR Inten    --      9.9588                45.6514                26.4835

                     94                     95                     96
                      A                      A                      A
 Frequencies --   1350.4081              1364.2789              1386.0748
 Red. masses --      1.7090                 1.7443                 3.5198
 Frc consts  --      1.8362                 1.9128                 3.9842
 IR Inten    --      6.1862                30.1539                84.9111

                     97                     98                     99
                      A                      A                      A
 Frequencies --   1391.9337              1421.1428              1428.1035
 Red. masses --      1.6149                 2.4643                 2.5138
 Frc consts  --      1.8435                 2.9323                 3.0206
 IR Inten    --     12.0689                 4.1551                 3.4681

                    100                    101                    102
                      A                      A                      A
 Frequencies --   1428.9108              1441.5076              1450.6351
 Red. masses --      3.6876                 5.7682                 1.3605
 Frc consts  --      4.4362                 7.0620                 1.6868
 IR Inten    --     50.3845                 5.5731                 7.3251

                    103                    104                    105
                      A                      A                      A
 Frequencies --   1473.7026              1490.4232              1497.2134
 Red. masses --      2.4523                 1.1484                 1.6613
 Frc consts  --      3.1379                 1.5030                 2.1941
 IR Inten    --     10.0984               115.4200                 0.7228

                    106                    107                    108
                      A                      A                      A
 Frequencies --   1498.7450              1510.1918              1514.8904
 Red. masses --      1.3032                 2.0091                 1.2496
 Frc consts  --      1.7247                 2.6998                 1.6896
 IR Inten    --      3.1664                10.1788                11.3256

                    109                    110                    111
                      A                      A                      A
 Frequencies --   1531.2475              1562.0472              1567.9687
 Red. masses --      2.1369                 1.0973                 3.1027
 Frc consts  --      2.9521                 1.5775                 4.4943
 IR Inten    --      0.2117                11.9494                 7.5882

                    112                    113                    114
                      A                      A                      A
 Frequencies --   1575.7429              1611.4484              1625.9100
 Red. masses --      2.7497                 2.0841                 6.5331
 Frc consts  --      4.0226                 3.1887                10.1757
 IR Inten    --    120.2633                24.1298                10.6392

                    115                    116                    117
                      A                      A                      A
 Frequencies --   1661.4333              1689.1547              1724.1398
 Red. masses --      5.0690                 6.1162                 1.0916
 Frc consts  --      8.2439                10.2818                 1.9118
 IR Inten    --     11.4453                 7.9925                24.3079

                    118                    119                    120
                      A                      A                      A
 Frequencies --   2982.6344              3013.1694              3029.7865
 Red. masses --      1.0663                 1.0693                 1.0931
 Frc consts  --      5.5888                 5.7199                 5.9121
 IR Inten    --     99.6956                30.5693                39.3530

                    121                    122                    123
                      A                      A                      A
 Frequencies --   3041.4107              3046.4804              3070.4426
 Red. masses --      1.0830                 1.0650                 1.0875
 Frc consts  --      5.9025                 5.8234                 6.0406
 IR Inten    --    120.9759                37.0609                 2.0691

                    124                    125                    126
                      A                      A                      A
 Frequencies --   3090.4250              3183.9313              3186.8360
 Red. masses --      1.0941                 1.0870                 1.0884
 Frc consts  --      6.1564                 6.4923                 6.5128
 IR Inten    --      8.5777                 0.8004                20.1895

                    127                    128                    129
                      A                      A                      A
 Frequencies --   3189.6340              3194.4406              3205.8841
 Red. masses --      1.0878                 1.0705                 1.0933
 Frc consts  --      6.5203                 6.4362                 6.6203
 IR Inten    --     18.0371               536.9046                26.9633

                    130                    131                    132
                      A                      A                      A
 Frequencies --   3222.3480              3231.9042              3238.4975
 Red. masses --      1.0984                 1.0931                 1.0908
 Frc consts  --      6.7197                 6.7268                 6.7401
 IR Inten    --     38.2464                 5.9162                 1.4609

                    133                    134                    135
                      A                      A                      A
 Frequencies --   3253.9444              3255.0938              3273.6289
 Red. masses --      1.0931                 1.0943                 1.0902
 Frc consts  --      6.8191                 6.8315                 6.8838
 IR Inten    --      2.7925                 2.1712                 2.7870

                    136                    137                    138
                      A                      A                      A
 Frequencies --   3288.3118              3307.9688              3318.8707
 Red. masses --      1.0949                 1.1007                 1.0996
 Frc consts  --      6.9754                 7.0966                 7.1360
 IR Inten    --      8.5798                 1.8978                 7.5089

                    139                    140                    141
                      A                      A                      A
 Frequencies --   3332.1879              3465.6187              3625.2166
 Red. masses --      1.0899                 1.0517                 1.0927
 Frc consts  --      7.1301                 7.4425                 8.4609
 IR Inten    --    172.6600                93.5099                19.6833

 - Thermochemistry -
 -------------------
 Temperature   298.150 Kelvin.  Pressure   1.00000 Atm.
 Atom     1 has atomic number  7 and mass  14.00307

 Molecular mass:   336.18378 amu.
 Principal axes and moments of inertia in atomic units:
                           1         2         3
     Eigenvalues --  5704.077069256.03773**********
           X            0.99978  -0.01655  -0.01259
           Y            0.01672   0.99977   0.01364
           Z            0.01236  -0.01385   0.99983
 This molecule is an asymmetric top.
 Rotational symmetry number  1.
 Warning -- assumption of classical behavior for rotation
           may cause significant error
 Rotational temperatures (Kelvin)      0.01518     0.00936     0.00749
 Rotational constants (GHZ):           0.31639     0.19498     0.15611
 Zero-point vibrational energy    1087823.0 (Joules/Mol)
                                  259.99594 (Kcal/Mol)
 Warning -- explicit consideration of  32 degrees of freedom as
           vibrations may cause significant error
 Vibrational temperatures:     24.58    44.85    66.50    83.84    90.04
          (Kelvin)            125.50   135.82   152.51   160.20   185.46
                              196.76   209.95   228.23   255.28   285.17
                              292.17   317.81   350.78   383.31   413.21
                              459.19   461.02   533.56   573.04   590.25
                              639.67   666.91   708.38   719.17   776.11
                              807.28   874.89   894.96   905.79   914.01
                              940.00   954.69   978.43  1058.79  1071.56
                             1097.33  1110.20  1121.77  1132.62  1137.29
                             1146.16  1154.38  1163.30  1232.96  1242.07
                             1247.14  1252.60  1271.29  1303.98  1314.03
                             1317.17  1320.91  1326.88  1341.61  1369.10
                             1378.70  1416.66  1422.84  1430.57  1442.55
                             1449.27  1461.19  1471.64  1493.04  1524.30
                             1534.47  1565.32  1571.45  1599.60  1616.58
                             1627.74  1683.87  1686.66  1708.53  1727.36
                             1736.54  1752.48  1755.13  1769.77  1775.86
                             1817.63  1823.33  1849.91  1860.22  1887.64
                             1911.42  1913.33  1936.38  1942.94  1962.89
                             1994.25  2002.68  2044.71  2054.72  2055.88
                             2074.01  2087.14  2120.33  2144.39  2154.16
                             2156.36  2172.83  2179.59  2203.12  2247.44
                             2255.96  2267.14  2318.51  2339.32  2390.43
                             2430.32  2480.65  4291.35  4335.28  4359.19
                             4375.91  4383.21  4417.68  4446.43  4580.97
                             4585.15  4589.17  4596.09  4612.55  4636.24
                             4649.99  4659.48  4681.70  4683.35  4710.02
                             4731.15  4759.43  4775.11  4794.28  4986.25
                             5215.88

 Zero-point correction=                           0.414330 (Hartree/Particle)
 Thermal correction to Energy=                    0.437063
 Thermal correction to Enthalpy=                  0.438007
 Thermal correction to Gibbs Free Energy=         0.361280
 Sum of electronic and zero-point Energies=          -1073.976060
 Sum of electronic and thermal Energies=             -1073.953328
 Sum of electronic and thermal Enthalpies=           -1073.952384
 Sum of electronic and thermal Free Energies=        -1074.029110

                     E (Thermal)             CV                S
                      KCal/Mol        Cal/Mol-Kelvin    Cal/Mol-Kelvin
 Total                  274.261             88.819            161.485
 Electronic               0.000              0.000              0.000
 Translational            0.889              2.981             43.332
 Rotational               0.889              2.981             34.767
 Vibrational            272.483             82.857             83.386
 Vibration     1          0.593              1.986              6.947
 Vibration     2          0.594              1.983              5.753
 Vibration     3          0.595              1.979              4.973
 Vibration     4          0.596              1.974              4.515
 Vibration     5          0.597              1.972              4.374
 Vibration     6          0.601              1.958              3.721
 Vibration     7          0.603              1.953              3.567
 Vibration     8          0.605              1.944              3.341
 Vibration     9          0.607              1.940              3.245
 Vibration    10          0.611              1.924              2.962
 Vibration    11          0.614              1.917              2.849
 Vibration    12          0.617              1.907              2.725
 Vibration    13          0.621              1.893              2.566
 Vibration    14          0.628              1.870              2.355
 Vibration    15          0.637              1.842              2.150
 Vibration    16          0.639              1.836              2.105
 Vibration    17          0.648              1.809              1.952
 Vibration    18          0.659              1.773              1.775
 Vibration    19          0.672              1.735              1.619
 Vibration    20          0.684              1.697              1.490
 Vibration    21          0.705              1.637              1.314
 Vibration    22          0.706              1.634              1.308
 Vibration    23          0.743              1.532              1.076
 Vibration    24          0.765              1.474              0.969
 Vibration    25          0.774              1.448              0.926
 Vibration    26          0.804              1.373              0.812
 Vibration    27          0.821              1.331              0.756
 Vibration    28          0.848              1.267              0.678
 Vibration    29          0.855              1.250              0.658
 Vibration    30          0.894              1.163              0.567
 Vibration    31          0.917              1.115              0.522
 Vibration    32          0.967              1.015              0.436

 Optimization completed.
    -- Stationary point found.

 1\1\GINC-HOLY7C17111\Freq\RB3LYP\6-31G\C21H24N2O2\ROOT\05-Dec-2017\0\\
 #P Geom=AllCheck Guess=TCheck SCRF=Check GenChk RB3LYP/6-31G Freq\\TS
 Freeze\\0,1\N,-2.8532678085,0.1606847124,1.8289129166\H,-2.9073671953,
 -0.6447336081,1.2073020998\H,-3.3073178149,0.0092155278,2.7213966228\C
 ,-3.199909666,1.4201786602,1.1650744665\H,-4.2859329983,1.5943358308,1
 .0917025475\H,-2.7759626194,2.2624007517,1.7306052854\O,-3.3777370889,
 0.5227555113,-1.1250181063\H,-3.023622621,-0.4001895001,-0.9593662441\
 C,-1.1652517161,1.2961715925,-0.426519272\C,-0.2798587883,1.3297095287

 Normal termination of Gaussian 16 at Tue Dec  5 22:13:30 2017.
