 Gaussian 16, Revision A.03,
 Gaussian 16:  ES64L-G16RevA.03 25-Dec-2016

 ----------------------------------------------------------------------
 #p b3lyp empiricaldispersion=gd3bj 6-31g opt=modredundant freq=noraman
 ----------------------------------------------------------------------

 ---------
 TS Freeze
 ---------
 Symbolic Z-matrix:
 Charge =  0 Multiplicity = 1

 SCF Done:  E(RB3LYP) =  -479.347476066     A.U. after   19 cycles
 SCF Done:  E(RB3LYP) =  -479.343102053     A.U. after   19 cycles
 SCF Done:  E(RB3LYP) =  -479.348540239     A.U. after   17 cycles
 SCF Done:  E(RB3LYP) =  -479.349887976     A.U. after   18 cycles
 SCF Done:  E(RB3LYP) =  -479.351606317     A.U. after   16 cycles
 SCF Done:  E(RB3LYP) =  -479.352396199     A.U. after   17 cycles
 SCF Done:  E(RB3LYP) =  -479.352908690     A.U. after   18 cycles
 SCF Done:  E(RB3LYP) =  -479.354572173     A.U. after   16 cycles
 SCF Done:  E(RB3LYP) =  -479.356465474     A.U. after   17 cycles
 SCF Done:  E(RB3LYP) =  -479.359152948     A.U. after   17 cycles
 SCF Done:  E(RB3LYP) =  -479.363997781     A.U. after   14 cycles
 SCF Done:  E(RB3LYP) =  -479.364083302     A.U. after   13 cycles
 SCF Done:  E(RB3LYP) =  -479.364096314     A.U. after   12 cycles
 SCF Done:  E(RB3LYP) =  -479.364117911     A.U. after   12 cycles
 SCF Done:  E(RB3LYP) =  -479.364122405     A.U. after   11 cycles
 SCF Done:  E(RB3LYP) =  -479.364124562     A.U. after    9 cycles
 SCF Done:  E(RB3LYP) =  -479.364125662     A.U. after   10 cycles
 SCF Done:  E(RB3LYP) =  -479.364126356     A.U. after    9 cycles
 SCF Done:  E(RB3LYP) =  -479.364126610     A.U. after    9 cycles
 Optimization completed.
    -- Stationary point found.
 Normal termination of Gaussian 16 at Thu Dec  7 03:12:43 2017.

 -----------------------------------------------------------------
 #P Geom=AllCheck Guess=TCheck SCRF=Check GenChk RB3LYP/6-31G Freq
 -----------------------------------------------------------------

 Structure from the checkpoint file:  "/scratch/dhuang9_oac_pyrrole_freeze_b3lyp_631g/Gau-41390.chk"
 ---------
 TS Freeze
 ---------
 Charge =  0 Multiplicity = 1

                         Standard orientation:
 ---------------------------------------------------------------------
 Center     Atomic      Atomic             Coordinates (Angstroms)
 Number     Number       Type             X           Y           Z
 ---------------------------------------------------------------------
      1          6           0       -1.287816    0.929626   -0.148770
      2          6           0       -0.661757   -0.305180   -0.614725
      3          6           0       -1.560623   -1.485836   -0.469364
      4          6           0       -2.872318   -0.904187    0.127294
      5          6           0       -2.593861    0.556077    0.238913
      6          1           0        0.198994   -0.318778   -1.272596
      7          1           0       -1.736520   -1.963298   -1.444126
      8          1           0       -1.118646   -2.263554    0.166752
      9          1           0       -3.728549   -1.123702   -0.528585
     10          1           0       -3.126030   -1.351776    1.101415
     11          1           0       -3.330729    1.278168    0.570952
     12          8           0       -0.724803    2.094727   -0.091715
     13          6           0        1.972888   -1.273797    0.566556
     14          6           0        1.152952   -0.219882    1.000718
     15          6           0        2.864450   -0.746165   -0.397940
     16          1           0        3.622970   -1.287151   -0.942353
     17          6           0        2.586654    0.621823   -0.514718
     18          1           0        3.017333    1.363215   -1.168095
     19          7           0        1.585698    0.943170    0.361434
     20          1           0        1.926828   -2.294331    0.915528
     21          1           0        0.453724   -0.173642    1.818178
     22          1           0        0.915745    1.739965    0.258830
 ---------------------------------------------------------------------

 SCF Done:  E(RB3LYP) =  -479.364126610     A.U. after    1 cycles

 The electronic state is 1-A.
 Alpha  occ. eigenvalues --  -19.06694 -14.36156 -10.23654 -10.23615 -10.21904
 Alpha  occ. eigenvalues --  -10.21779 -10.20873 -10.20507 -10.20352 -10.18574
 Alpha  occ. eigenvalues --  -10.18086  -0.98291  -0.96431  -0.85856  -0.77646
 Alpha  occ. eigenvalues --   -0.73454  -0.72183  -0.70594  -0.59443  -0.58117
 Alpha  occ. eigenvalues --   -0.57224  -0.55257  -0.53932  -0.48296  -0.47708
 Alpha  occ. eigenvalues --   -0.44644  -0.42694  -0.41341  -0.40477  -0.40038
 Alpha  occ. eigenvalues --   -0.39113  -0.38795  -0.37739  -0.37139  -0.35886
 Alpha  occ. eigenvalues --   -0.34347  -0.25403  -0.23411  -0.21151  -0.18891
 Alpha virt. eigenvalues --   -0.10129   0.03212   0.06772   0.07707   0.08364
 Alpha virt. eigenvalues --    0.11006   0.12299   0.14089   0.14977   0.15784
 Alpha virt. eigenvalues --    0.15938   0.16434   0.17015   0.18098   0.19342

 Mulliken charges:
               1
     1  C    0.311559
     2  C   -0.077470
     3  C   -0.326936
     4  C   -0.314525
     5  C   -0.101526
     6  H    0.177721
     7  H    0.170264
     8  H    0.173500
     9  H    0.162213
    10  H    0.158152
    11  H    0.149489
    12  O   -0.614781
    13  C   -0.130973
    14  C   -0.006208
    15  C   -0.176399
    16  H    0.133104
    17  C    0.073006
    18  H    0.161870
    19  N   -0.597415
    20  H    0.131580
    21  H    0.166309
    22  H    0.377465
 Sum of Mulliken charges =   0.00000

 Dipole moment (field-independent basis, Debye):
    X=             -0.8543    Y=             -4.4061    Z=             -0.4610  Tot=              4.5117
 Quadrupole moment (field-independent basis, Debye-Ang):
   XX=            -58.8195   YY=            -70.6398   ZZ=            -63.5627
   XY=              5.0674   XZ=             -3.8508   YZ=             -0.1812

  Exact polarizability: 195.971  -5.911 103.684 -14.757  -0.274  68.616
 Approx polarizability: 387.213 -31.364 188.028 -44.853   3.475 111.672

 ******    1 imaginary frequencies (negative Signs) ******

                      1                      2                      3
                      A                      A                      A
 Frequencies --    -54.1608                78.9241                89.5182
 Red. masses --      5.2152                 2.6892                 4.0435
 Frc consts  --      0.0090                 0.0099                 0.0191
 IR Inten    --    101.6299                 2.6428                 8.1587

                      4                      5                      6
                      A                      A                      A
 Frequencies --    122.7064               182.7269               200.0400
 Red. masses --      4.1969                 3.3582                 3.9172
 Frc consts  --      0.0372                 0.0661                 0.0924
 IR Inten    --     17.4688                 0.2151                 6.2426

                      7                      8                      9
                      A                      A                      A
 Frequencies --    213.2187               289.9528               470.1408
 Red. masses --      2.5910                 3.5351                 5.3357
 Frc consts  --      0.0694                 0.1751                 0.6949
 IR Inten    --      7.6340                77.6527                13.1839

                     10                     11                     12
                      A                      A                      A
 Frequencies --    594.3179               620.2402               636.8518
 Red. masses --      3.1131                 3.3522                 3.4579
 Frc consts  --      0.6479                 0.7598                 0.8263
 IR Inten    --     29.9350                31.1900                12.6897

                     13                     14                     15
                      A                      A                      A
 Frequencies --    656.1136               740.5280               771.9479
 Red. masses --      6.7267                 1.3526                 3.6692
 Frc consts  --      1.7061                 0.4370                 1.2882
 IR Inten    --      5.1023                39.8384                 3.0781

                     16                     17                     18
                      A                      A                      A
 Frequencies --    775.7746               783.6017               852.8026
 Red. masses --      1.3085                 1.1977                 1.7121
 Frc consts  --      0.4640                 0.4333                 0.7336
 IR Inten    --     48.8693               116.1011               164.5549

                     19                     20                     21
                      A                      A                      A
 Frequencies --    860.8786               862.7411               911.7937
 Red. masses --      1.4441                 1.3845                 3.2390
 Frc consts  --      0.6305                 0.6072                 1.5865
 IR Inten    --     17.8496                10.1276                18.1489

                     22                     23                     24
                      A                      A                      A
 Frequencies --    914.6799               922.5486               959.2464
 Red. masses --      3.7047                 1.5230                 1.4103
 Frc consts  --      1.8262                 0.7637                 0.7646
 IR Inten    --     15.6697                 0.5762                 4.7132

                     25                     26                     27
                      A                      A                      A
 Frequencies --    968.4479              1004.0228              1011.5132
 Red. masses --      2.7158                 1.6568                 1.6803
 Frc consts  --      1.5007                 0.9840                 1.0129
 IR Inten    --     21.2776                61.8172                70.2021

                     28                     29                     30
                      A                      A                      A
 Frequencies --   1039.5153              1080.1653              1084.0509
 Red. masses --      1.8327                 1.4364                 1.4147
 Frc consts  --      1.1668                 0.9874                 0.9795
 IR Inten    --     34.7166                66.8368                12.7232

                     31                     32                     33
                      A                      A                      A
 Frequencies --   1111.8748              1119.7561              1152.9554
 Red. masses --      1.5684                 1.3254                 1.1467
 Frc consts  --      1.1424                 0.9791                 0.8981
 IR Inten    --      9.5926                15.0174                 0.5364

                     34                     35                     36
                      A                      A                      A
 Frequencies --   1187.4284              1208.7645              1236.2223
 Red. masses --      4.1153                 1.1508                 1.5902
 Frc consts  --      3.4188                 0.9907                 1.4319
 IR Inten    --     23.7349                25.3625                33.4429

                     37                     38                     39
                      A                      A                      A
 Frequencies --   1262.7438              1269.5832              1348.2372
 Red. masses --      2.2010                 2.0541                 1.6679
 Frc consts  --      2.0678                 1.9507                 1.7863
 IR Inten    --     34.8829                22.8244                21.6040

                     40                     41                     42
                      A                      A                      A
 Frequencies --   1355.7512              1359.4815              1367.5197
 Red. masses --      1.6830                 1.9459                 3.3441
 Frc consts  --      1.8226                 2.1189                 3.6847
 IR Inten    --     70.6791                27.6556                48.8014

                     43                     44                     45
                      A                      A                      A
 Frequencies --   1425.2299              1464.1627              1500.1823
 Red. masses --      3.7792                 2.3813                 1.0803
 Frc consts  --      4.5229                 3.0077                 1.4324
 IR Inten    --     57.2000                14.8748                10.0667

                     46                     47                     48
                      A                      A                      A
 Frequencies --   1513.1660              1521.2161              1568.2443
 Red. masses --      2.4782                 1.1260                 2.2362
 Frc consts  --      3.3432                 1.5352                 3.2404
 IR Inten    --      7.0926                 3.3311               106.2132

                     49                     50                     51
                      A                      A                      A
 Frequencies --   1639.5292              3008.0389              3027.9398
 Red. masses --      2.8173                 1.0611                 1.0953
 Frc consts  --      4.4619                 5.6566                 5.9169
 IR Inten    --     87.0984                46.4050                11.9386

                     52                     53                     54
                      A                      A                      A
 Frequencies --   3038.9557              3055.7080              3073.3108
 Red. masses --      1.0659                 1.0923                 1.0946
 Frc consts  --      5.7997                 6.0095                 6.0913
 IR Inten    --     14.2918               249.4468                35.5018

                     55                     56                     57
                      A                      A                      A
 Frequencies --   3234.8533              3242.4092              3271.4083
 Red. masses --      1.0935                 1.0926                 1.0899
 Frc consts  --      6.7418                 6.7676                 6.8725
 IR Inten    --      6.0606                 5.3806                 3.5426

                     58                     59                     60
                      A                      A                      A
 Frequencies --   3286.3402              3305.9442              3316.5931
 Red. masses --      1.0954                 1.0994                 1.1048
 Frc consts  --      6.9700                 7.0795                 7.1601
 IR Inten    --      7.7710                 2.5114                 5.8722

 - Thermochemistry -
 -------------------
 Temperature   298.150 Kelvin.  Pressure   1.00000 Atm.
 Atom     1 has atomic number  6 and mass  12.00000

 Molecular mass:   149.08406 amu.
 Principal axes and moments of inertia in atomic units:
                           1         2         3
     Eigenvalues --   836.570462246.632922774.02912
           X            0.99981   0.01684  -0.00987
           Y           -0.01682   0.99986   0.00206
           Z            0.00990  -0.00190   0.99995
 This molecule is an asymmetric top.
 Rotational symmetry number  1.
 Warning -- assumption of classical behavior for rotation
           may cause significant error
 Rotational temperatures (Kelvin)      0.10353     0.03855     0.03122
 Rotational constants (GHZ):           2.15731     0.80331     0.65058
    1 imaginary frequencies ignored.
 Zero-point vibrational energy     479538.4 (Joules/Mol)
                                  114.61243 (Kcal/Mol)
 Warning -- explicit consideration of  10 degrees of freedom as
           vibrations may cause significant error
 Vibrational temperatures:    113.55   128.80   176.55   262.90   287.81
          (Kelvin)            306.77   417.18   676.43   855.09   892.39
                              916.29   944.00  1065.45  1110.66  1116.17
                             1127.43  1226.99  1238.61  1241.29  1311.87
                             1316.02  1327.34  1380.14  1393.38  1444.56
                             1455.34  1495.63  1554.12  1559.71  1599.74
                             1611.08  1658.85  1708.44  1739.14  1778.65
                             1816.81  1826.65  1939.81  1950.62  1955.99
                             1967.56  2050.59  2106.60  2158.43  2177.11
                             2188.69  2256.35  2358.92  4327.90  4356.53
                             4372.38  4396.48  4421.81  4654.23  4665.10
                             4706.83  4728.31  4756.52  4771.84

 Zero-point correction=                           0.182647 (Hartree/Particle)
 Thermal correction to Energy=                    0.191801
 Thermal correction to Enthalpy=                  0.192745
 Thermal correction to Gibbs Free Energy=         0.147688
 Sum of electronic and zero-point Energies=           -479.181480
 Sum of electronic and thermal Energies=              -479.172326
 Sum of electronic and thermal Enthalpies=            -479.171381
 Sum of electronic and thermal Free Energies=         -479.216438

                     E (Thermal)             CV                S
                      KCal/Mol        Cal/Mol-Kelvin    Cal/Mol-Kelvin
 Total                  120.357             35.371             94.830
 Electronic               0.000              0.000              0.000
 Translational            0.889              2.981             40.908
 Rotational               0.889              2.981             30.034
 Vibrational            118.580             29.409             23.888
 Vibration     1          0.600              1.963              3.917
 Vibration     2          0.602              1.957              3.671
 Vibration     3          0.610              1.930              3.057
 Vibration     4          0.630              1.863              2.300
 Vibration     5          0.638              1.840              2.133
 Vibration     6          0.644              1.821              2.016
 Vibration     7          0.686              1.692              1.474
 Vibration     8          0.827              1.316              0.737
 Vibration     9          0.952              1.044              0.460
 Vibration    10          0.980              0.989              0.416

                           ! Non-Optimized Parameters !
 Normal termination of Gaussian 16 at Thu Dec  7 03:15:39 2017.
