 Gaussian 16, Revision A.03,
 Gaussian 16:  ES64L-G16RevA.03 25-Dec-2016

 ------------------------
 #p pddg opt=modredundant
 ------------------------

 ---------
 TS Freeze
 ---------
 Symbolic Z-matrix:
 Charge =  0 Multiplicity = 1

 SCF Done:  E(RPDDG) =  0.114983448081     A.U. after   16 cycles
 SCF Done:  E(RPDDG) =  0.115082422263     A.U. after   17 cycles
 SCF Done:  E(RPDDG) =  0.115401861200     A.U. after   16 cycles
 SCF Done:  E(RPDDG) =  0.114888720121     A.U. after   16 cycles
 SCF Done:  E(RPDDG) =  0.128583441208     A.U. after   16 cycles
 SCF Done:  E(RPDDG) =  0.114005853688     A.U. after   16 cycles
 SCF Done:  E(RPDDG) =  0.113841818177     A.U. after   14 cycles
 SCF Done:  E(RPDDG) =  0.113718508426     A.U. after   15 cycles
 SCF Done:  E(RPDDG) =  0.113641281692     A.U. after   14 cycles
 SCF Done:  E(RPDDG) =  0.113602897550     A.U. after   13 cycles
 SCF Done:  E(RPDDG) =  0.113502909023     A.U. after   13 cycles
 SCF Done:  E(RPDDG) =  0.113495106636     A.U. after   13 cycles
 SCF Done:  E(RPDDG) =  0.113492480976     A.U. after   11 cycles
 SCF Done:  E(RPDDG) =  0.113490638434     A.U. after   12 cycles
 SCF Done:  E(RPDDG) =  0.113488734153     A.U. after   12 cycles
 SCF Done:  E(RPDDG) =  0.113488377322     A.U. after   11 cycles
 SCF Done:  E(RPDDG) =  0.113488246766     A.U. after   11 cycles
 SCF Done:  E(RPDDG) =  0.113488114302     A.U. after   11 cycles
 SCF Done:  E(RPDDG) =  0.113488013462     A.U. after   11 cycles
 SCF Done:  E(RPDDG) =  0.113487994500     A.U. after   10 cycles
 Optimization completed.
    -- Stationary point found.

                         Standard orientation:
 ---------------------------------------------------------------------
 Center     Atomic      Atomic             Coordinates (Angstroms)
 Number     Number       Type             X           Y           Z
 ---------------------------------------------------------------------
      1          6           0        1.964455   -0.771834    0.097306
      2          6           0        2.699641    0.433456   -0.040066
      3          6           0        4.100939    0.441616   -0.090685
      4          6           0        4.737050   -0.781576   -0.002216
      5          6           0        4.014814   -1.984051    0.136903
      6          6           0        2.634054   -1.996715    0.189848
      7          6           0        0.568834   -0.432932    0.113172
      8          1           0        4.669341    1.377880   -0.198136
      9          1           0        5.835079   -0.824560   -0.041267
     10          1           0        4.571238   -2.929948    0.203476
     11          1           0        2.071897   -2.935231    0.299375
     12          1           0       -0.278788   -1.131897    0.205062
     13          6           0        0.468645    0.940650   -0.013179
     14          1           0       -0.460571    1.541691   -0.043732
     15          6           0        2.062410    2.854216   -0.460920
     16          1           0        3.100892    3.122998   -0.211001
     17          1           0        1.941147    3.015685   -1.544060
     18          1           0        1.401758    3.570045    0.049581
     19          7           0        1.767283    1.486140   -0.055572
     20          6           0       -4.184170   -1.010943   -0.257270
     21          6           0       -5.035263    0.145747   -0.221113
     22          6           0       -4.358856    1.333945    0.321712
     23          6           0       -2.955896    0.840226    0.701865
     24          6           0       -2.925303   -0.563930    0.267596
     25          1           0       -6.076563    0.165553   -0.565532
     26          1           0       -4.323868    2.155939   -0.426819
     27          1           0       -4.916558    1.761050    1.183812
     28          1           0       -2.123626    1.425094    0.228366
     29          1           0       -2.760787    0.923331    1.794426
     30          1           0       -1.994093   -1.161406    0.323503
     31          8           0       -4.471950   -2.145806   -0.665721
 ---------------------------------------------------------------------

 The electronic state is 1-A.
 Alpha  occ. eigenvalues --   -1.53099  -1.50291  -1.32380  -1.28005  -1.20400
 Alpha  occ. eigenvalues --   -1.08904  -1.06748  -1.00790  -0.98891  -0.91258
 Alpha  occ. eigenvalues --   -0.81465  -0.77693  -0.76390  -0.73850  -0.70645
 Alpha  occ. eigenvalues --   -0.66761  -0.64859  -0.62545  -0.60904  -0.60462
 Alpha  occ. eigenvalues --   -0.57601  -0.56611  -0.55986  -0.55188  -0.54238
 Alpha  occ. eigenvalues --   -0.53098  -0.52298  -0.51043  -0.50556  -0.50407
 Alpha  occ. eigenvalues --   -0.49350  -0.49199  -0.48011  -0.47228  -0.45121
 Alpha  occ. eigenvalues --   -0.43478  -0.38556  -0.35842  -0.33251  -0.31201
 Alpha  occ. eigenvalues --   -0.30078
 Alpha virt. eigenvalues --   -0.08062  -0.00165   0.01988   0.04642   0.05604
 Alpha virt. eigenvalues --    0.07598   0.07927   0.08242   0.09564   0.09705
 Alpha virt. eigenvalues --    0.10729   0.10973   0.11244   0.11626   0.11786

 Mulliken charges:
               1
     1  C   -0.082082
     2  C   -0.166742
     3  C   -0.146332
     4  C   -0.133393
     5  C   -0.176125
     6  C   -0.090135
     7  C   -0.210009
     8  H    0.153231
     9  H    0.146727
    10  H    0.149775
    11  H    0.154624
    12  H    0.176034
    13  C   -0.306702
    14  H    0.183149
    15  C   -0.280040
    16  H    0.114417
    17  H    0.102493
    18  H    0.105264
    19  N    0.307483
    20  C    0.222623
    21  C   -0.133413
    22  C   -0.183893
    23  C   -0.198238
    24  C   -0.137965
    25  H    0.165400
    26  H    0.133836
    27  H    0.132157
    28  H    0.133289
    29  H    0.139506
    30  H    0.172852
    31  O   -0.447790
 Sum of Mulliken charges =   0.00000

 Dipole moment (field-independent basis, Debye):
    X=              1.6952    Y=              7.5404    Z=              1.4989  Tot=              7.8726
 N-N= 5.277532218551D+02 E-N=-8.640919713427D+02  KE=-1.336939460418D+02
 Leave Link  601 at Tue Nov 28 02:04:06 2017, MaxMem=   134217728 cpu:               0.1 elap:               0.1
 (Enter /n/sw/g16_nehalem/g16/l9999.exe)
 1\1\GINC-HOLYBIGMEM08\FOpt\RPDDG\ZDO\C14H15N1O1\ROOT\28-Nov-2017\0\\#p
  pddg opt=modredundant\\TS Freeze\\0,1\C,-1.0596653801,-5.7931643708,1
 .5125586972\C,-2.3916040578,-6.091596251,1.8985271084\C,-2.7874169435,
 -7.3929992996,2.2390376139\C,-1.8183359606,-8.3760883703,2.1835336662\
 C,-0.4929660793,-8.0892352617,1.7987798943\C,-0.0989976159,-6.80884340
 54,1.4598860977\C,-0.9899594312,-4.3855396365,1.2357962801\H,-3.821198
 996,-7.6221729328,2.5390217215\H,-2.08170864,-9.4109598523,2.445671028

 Normal termination of Gaussian 16 at Tue Nov 28 02:04:06 2017.
