 Gaussian 16, Revision A.03,
 Gaussian 16:  ES64L-G16RevA.03 25-Dec-2016

 ----------------------------------------------------------------------
 #p b3lyp empiricaldispersion=gd3bj 6-31g* scrf=(pcm,solvent=perfluorob
 enzene) opt=(ts,calcfc,maxstep=5,noeigentest) freq=noraman
 ----------------------------------------------------------------------

 ------
 TS Opt
 ------
 Symbolic Z-matrix:
 Charge =  0 Multiplicity = 1

 SCF Done:  E(RB3LYP) =  -672.456515525     A.U. after   18 cycles
 SCF Done:  E(RB3LYP) =  -672.459394746     A.U. after   11 cycles
 SCF Done:  E(RB3LYP) =  -672.461821846     A.U. after   11 cycles
 SCF Done:  E(RB3LYP) =  -672.463663376     A.U. after   11 cycles
 SCF Done:  E(RB3LYP) =  -672.465303898     A.U. after   11 cycles
 SCF Done:  E(RB3LYP) =  -672.466403810     A.U. after   11 cycles
 SCF Done:  E(RB3LYP) =  -672.467280436     A.U. after   11 cycles
 SCF Done:  E(RB3LYP) =  -672.467767341     A.U. after   12 cycles
 SCF Done:  E(RB3LYP) =  -672.467996507     A.U. after   11 cycles
 SCF Done:  E(RB3LYP) =  -672.468035403     A.U. after   10 cycles
 SCF Done:  E(RB3LYP) =  -672.468040194     A.U. after   10 cycles
 SCF Done:  E(RB3LYP) =  -672.468040947     A.U. after    9 cycles
 SCF Done:  E(RB3LYP) =  -672.468041814     A.U. after    9 cycles
 SCF Done:  E(RB3LYP) =  -672.468035276     A.U. after   10 cycles
 SCF Done:  E(RB3LYP) =  -672.468041989     A.U. after   10 cycles
 SCF Done:  E(RB3LYP) =  -672.468042040     A.U. after    7 cycles
 SCF Done:  E(RB3LYP) =  -672.468042080     A.U. after    8 cycles
 Optimization completed.
    -- Stationary point found.
 Normal termination of Gaussian 16 at Sat Dec  2 18:20:13 2017.

 --------------------------------------------------------------------
 #P Geom=AllCheck Guess=TCheck SCRF=Check GenChk RB3LYP/6-31G(d) Freq
 --------------------------------------------------------------------

 Structure from the checkpoint file:  "/scratch/dhuang9_oac_methyl_indole_ts/Gau-93749.chk"
 ------
 TS Opt
 ------
 Charge =  0 Multiplicity = 1

                         Standard orientation:
 ---------------------------------------------------------------------
 Center     Atomic      Atomic             Coordinates (Angstroms)
 Number     Number       Type             X           Y           Z
 ---------------------------------------------------------------------
      1          6           0        1.121953   -0.762926   -0.469613
      2          6           0        1.735665    0.488963   -0.225804
      3          6           0        3.002486    0.613287    0.343130
      4          6           0        3.670603   -0.567296    0.660637
      5          6           0        3.085253   -1.823598    0.418573
      6          6           0        1.814089   -1.933168   -0.140231
      7          6           0       -0.212066   -0.495484   -0.995357
      8          1           0        3.452867    1.582685    0.530837
      9          1           0        4.661094   -0.515570    1.102106
     10          1           0        3.636758   -2.723284    0.674221
     11          1           0        1.367399   -2.906752   -0.319062
     12          1           0       -0.816718   -1.179611   -1.586880
     13          6           0       -0.276199    0.905490   -1.130529
     14          1           0       -1.095359    1.508101   -1.496362
     15          6           0        1.076254    2.912655   -0.501431
     16          1           0        2.014578    3.194330   -0.987300
     17          1           0        0.253970    3.454459   -0.969935
     18          1           0        1.126270    3.180711    0.558994
     19          7           0        0.848340    1.485589   -0.651363
     20          6           0       -2.822799   -0.870000   -0.204420
     21          6           0       -3.499410    0.272867    0.260382
     22          6           0       -2.687303    1.123480    1.177883
     23          6           0       -1.517945    0.201244    1.590975
     24          6           0       -1.548752   -0.881310    0.561186
     25          1           0       -4.504043    0.535653   -0.057275
     26          1           0       -2.290433    2.022441    0.661638
     27          1           0       -3.235680    1.504620    2.050267
     28          1           0       -0.546875    0.706446    1.669634
     29          1           0       -1.717094   -0.241710    2.576154
     30          1           0       -1.048695   -1.827813    0.749728
     31          8           0       -3.105924   -1.724882   -1.083688
 ---------------------------------------------------------------------

 SCF Done:  E(RB3LYP) =  -672.468042080     A.U. after    1 cycles

 The electronic state is 1-A.
 Alpha  occ. eigenvalues --  -19.04095 -14.42158 -10.25468 -10.25078 -10.23864
 Alpha  occ. eigenvalues --  -10.21738 -10.20866 -10.20675 -10.20571 -10.20316
 Alpha  occ. eigenvalues --  -10.20183 -10.20141 -10.19824 -10.18981 -10.18444
 Alpha  occ. eigenvalues --  -10.15769  -1.01958  -0.93933  -0.86393  -0.83179
 Alpha  occ. eigenvalues --   -0.81546  -0.76561  -0.74345  -0.71615  -0.69122
 Alpha  occ. eigenvalues --   -0.67163  -0.63998  -0.60638  -0.58990  -0.56163
 Alpha  occ. eigenvalues --   -0.53696  -0.51198  -0.50242  -0.49560  -0.48912
 Alpha  occ. eigenvalues --   -0.46159  -0.45870  -0.44962  -0.44556  -0.43600
 Alpha  occ. eigenvalues --   -0.42034  -0.41119  -0.40748  -0.37876  -0.37139
 Alpha  occ. eigenvalues --   -0.36524  -0.35556  -0.35359  -0.34864  -0.34411
 Alpha  occ. eigenvalues --   -0.33782  -0.32779  -0.28690  -0.24604  -0.23957
 Alpha  occ. eigenvalues --   -0.18487  -0.15791
 Alpha virt. eigenvalues --   -0.07539  -0.02509   0.00583   0.05532   0.06656
 Alpha virt. eigenvalues --    0.09210   0.09883   0.11148   0.11445   0.13075
 Alpha virt. eigenvalues --    0.13434   0.14061   0.14366   0.15020   0.16002

 Mulliken charges:
               1
     1  C    0.136955
     2  C    0.293155
     3  C   -0.167419
     4  C   -0.154824
     5  C   -0.136908
     6  C   -0.207508
     7  C   -0.324776
     8  H    0.146735
     9  H    0.142989
    10  H    0.142310
    11  H    0.154692
    12  H    0.213321
    13  C    0.098735
    14  H    0.200127
    15  C   -0.333235
    16  H    0.193374
    17  H    0.192301
    18  H    0.192141
    19  N   -0.451471
    20  C    0.437162
    21  C   -0.208668
    22  C   -0.304591
    23  C   -0.300296
    24  C   -0.157749
    25  H    0.117672
    26  H    0.122119
    27  H    0.145926
    28  H    0.145706
    29  H    0.171878
    30  H    0.171896
    31  O   -0.671750
 Sum of Mulliken charges =   0.00000

 Dipole moment (field-independent basis, Debye):
    X=              7.3486    Y=              6.3940    Z=              2.3040  Tot=             10.0096
 Quadrupole moment (field-independent basis, Debye-Ang):
   XX=           -108.1756   YY=            -84.9098   ZZ=            -95.6686
   XY=            -10.9349   XZ=             -6.1444   YZ=             -7.7525

  Exact polarizability: 306.420 -11.019 184.923   6.999   3.414 117.354
 Approx polarizability: 461.843 -14.141 293.973   7.351   6.563 182.624

 ******    1 imaginary frequencies (negative Signs) ******

                      1                      2                      3
                      A                      A                      A
 Frequencies --   -284.9749                41.8650                57.2287
 Red. masses --      8.4454                 3.6434                 3.3252
 Frc consts  --      0.4041                 0.0038                 0.0064
 IR Inten    --    506.2442                 3.4459                 2.8648

                      4                      5                      6
                      A                      A                      A
 Frequencies --     64.8278                90.6346               101.9589
 Red. masses --      4.5978                 1.4619                 2.6422
 Frc consts  --      0.0114                 0.0071                 0.0162
 IR Inten    --      3.0799                 2.4187                 0.9624

                      7                      8                      9
                      A                      A                      A
 Frequencies --    144.4009               149.1220               213.3849
 Red. masses --      3.3014                 3.8897                 3.3042
 Frc consts  --      0.0406                 0.0510                 0.0886
 IR Inten    --     25.1964                12.4704                22.0019

                     10                     11                     12
                      A                      A                      A
 Frequencies --    234.7749               256.4426               284.6434
 Red. masses --      2.8181                 2.9841                 3.4080
 Frc consts  --      0.0915                 0.1156                 0.1627
 IR Inten    --      2.5597                 0.6570                 2.1377

                     13                     14                     15
                      A                      A                      A
 Frequencies --    343.6101               435.0076               460.6331
 Red. masses --      2.7444                 3.0361                 4.5720
 Frc consts  --      0.1909                 0.3385                 0.5716
 IR Inten    --     16.9375                 7.2730                14.6144

                     16                     17                     18
                      A                      A                      A
 Frequencies --    491.2185               548.4983               570.5927
 Red. masses --      3.4473                 5.4313                 3.8188
 Frc consts  --      0.4901                 0.9627                 0.7325
 IR Inten    --      4.7601                 4.6761                31.6492

                     19                     20                     21
                      A                      A                      A
 Frequencies --    582.9999               590.2315               618.3979
 Red. masses --      3.9123                 4.5561                 2.9597
 Frc consts  --      0.7835                 0.9352                 0.6669
 IR Inten    --      0.9477                27.1628                24.7313

                     22                     23                     24
                      A                      A                      A
 Frequencies --    664.9702               697.5360               728.4366
 Red. masses --      3.4295                 2.6602                 4.9655
 Frc consts  --      0.8935                 0.7626                 1.5524
 IR Inten    --     36.8100                 4.0704                 4.9262

                     25                     26                     27
                      A                      A                      A
 Frequencies --    761.5742               770.2092               773.1126
 Red. masses --      1.2809                 3.3610                 2.9147
 Frc consts  --      0.4377                 1.1747                 1.0264
 IR Inten    --     59.7190                15.7984                42.2862

                     28                     29                     30
                      A                      A                      A
 Frequencies --    786.9066               832.2557               843.9375
 Red. masses --      4.7937                 1.5124                 1.3699
 Frc consts  --      1.7489                 0.6172                 0.5748
 IR Inten    --     13.4647                 3.1885                16.0840

                     31                     32                     33
                      A                      A                      A
 Frequencies --    869.0149               881.8961               895.6474
 Red. masses --      1.4520                 2.1084                 4.2195
 Frc consts  --      0.6461                 0.9661                 1.9943
 IR Inten    --     18.6101               183.6555                68.4519

                     34                     35                     36
                      A                      A                      A
 Frequencies --    925.7399               938.5221               952.7799
 Red. masses --      2.0556                 1.3519                 1.9106
 Frc consts  --      1.0379                 0.7016                 1.0219
 IR Inten    --      5.3009                 0.5938                32.6799

                     37                     38                     39
                      A                      A                      A
 Frequencies --    982.9799               992.9575              1017.6811
 Red. masses --      1.2573                 1.5060                 1.5766
 Frc consts  --      0.7158                 0.8749                 0.9621
 IR Inten    --      0.1833                 6.8370                94.3155

                     40                     41                     42
                      A                      A                      A
 Frequencies --   1045.5806              1050.3645              1063.7241
 Red. masses --      2.0673                 1.3621                 1.9675
 Frc consts  --      1.3316                 0.8854                 1.3116
 IR Inten    --      7.5188                13.5145                 3.9784

                     43                     44                     45
                      A                      A                      A
 Frequencies --   1083.0318              1116.7465              1127.9191
 Red. masses --      1.3858                 1.7569                 1.4386
 Frc consts  --      0.9577                 1.2909                 1.0783
 IR Inten    --     20.4392                 3.1000                59.5068

                     46                     47                     48
                      A                      A                      A
 Frequencies --   1144.3555              1158.7643              1165.2667
 Red. masses --      1.1977                 1.3168                 1.6068
 Frc consts  --      0.9241                 1.0418                 1.2855
 IR Inten    --      3.2859                 2.1642                16.3782

                     49                     50                     51
                      A                      A                      A
 Frequencies --   1187.9489              1219.0286              1229.2416
 Red. masses --      1.1842                 1.3128                 1.9111
 Frc consts  --      0.9847                 1.1494                 1.7014
 IR Inten    --      2.0346                35.9467                 7.4777

                     52                     53                     54
                      A                      A                      A
 Frequencies --   1235.6654              1276.1890              1287.1446
 Red. masses --      1.9585                 2.2644                 1.5938
 Frc consts  --      1.7618                 2.1729                 1.5558
 IR Inten    --      6.5012                18.3929                42.8618

                     55                     56                     57
                      A                      A                      A
 Frequencies --   1329.2170              1334.5754              1351.1141
 Red. masses --      3.3929                 2.0306                 2.1703
 Frc consts  --      3.5319                 2.1309                 2.3343
 IR Inten    --     90.1205                46.1957                15.9899

                     58                     59                     60
                      A                      A                      A
 Frequencies --   1372.2931              1378.3860              1392.7761
 Red. masses --      1.8187                 2.4069                 5.3596
 Frc consts  --      2.0180                 2.6943                 6.1256
 IR Inten    --     48.6459                34.5688                 2.5408

                     61                     62                     63
                      A                      A                      A
 Frequencies --   1431.4433              1467.3174              1489.5845
 Red. masses --      3.4199                 1.4241                 1.0782
 Frc consts  --      4.1287                 1.8065                 1.4095
 IR Inten    --     43.1079               102.1739                 8.5798

                     64                     65                     66
                      A                      A                      A
 Frequencies --   1501.7552              1505.5795              1508.5462
 Red. masses --      2.2132                 1.0596                 1.0953
 Frc consts  --      2.9408                 1.4151                 1.4686
 IR Inten    --    100.6962                28.5136                 2.7952

                     67                     68                     69
                      A                      A                      A
 Frequencies --   1526.2543              1528.8257              1557.2043
 Red. masses --      2.1727                 1.3976                 2.2353
 Frc consts  --      2.9819                 1.9247                 3.1936
 IR Inten    --      1.9173                46.9751               132.0834

                     70                     71                     72
                      A                      A                      A
 Frequencies --   1638.7845              1669.5854              1680.1656
 Red. masses --      6.0711                 6.7132                 8.5590
 Frc consts  --      9.6064                11.0255                14.2357
 IR Inten    --      0.9018                 6.8548               566.4454

                     73                     74                     75
                      A                      A                      A
 Frequencies --   2898.7081              3036.8336              3045.2425
 Red. masses --      1.0750                 1.0745                 1.0692
 Frc consts  --      5.3222                 5.8384                 5.8418
 IR Inten    --     80.8648                37.5577                52.6226

                     76                     77                     78
                      A                      A                      A
 Frequencies --   3067.5354              3071.0797              3134.3455
 Red. masses --      1.0354                 1.1012                 1.1047
 Frc consts  --      5.7403                 6.1194                 6.3940
 IR Inten    --     35.4551                29.6658                11.8102

                     79                     80                     81
                      A                      A                      A
 Frequencies --   3162.9973              3176.6838              3186.5522
 Red. masses --      1.0965                 1.1038                 1.0908
 Frc consts  --      6.4634                 6.5627                 6.5256
 IR Inten    --     57.3243                 5.0086                12.6056

                     82                     83                     84
                      A                      A                      A
 Frequencies --   3194.0661              3202.7045              3206.1085
 Red. masses --      1.0859                 1.0890                 1.0906
 Frc consts  --      6.5274                 6.5816                 6.6049
 IR Inten    --      0.1852                 5.1213                32.5894

                     85                     86                     87
                      A                      A                      A
 Frequencies --   3211.3206              3219.8649              3281.1279
 Red. masses --      1.0938                 1.0971                 1.0969
 Frc consts  --      6.6462                 6.7018                 6.9578
 IR Inten    --     24.1395                26.0849                 2.0540

 - Thermochemistry -
 -------------------
 Temperature   298.150 Kelvin.  Pressure   1.00000 Atm.
 Atom     1 has atomic number  6 and mass  12.00000

 Molecular mass:   213.11536 amu.
 Principal axes and moments of inertia in atomic units:
                           1         2         3
     Eigenvalues --  1925.457204572.819325476.68908
           X            0.99989  -0.01410  -0.00356
           Y            0.01407   0.99987  -0.00752
           Z            0.00367   0.00747   0.99997
 This molecule is an asymmetric top.
 Rotational symmetry number  1.
 Warning -- assumption of classical behavior for rotation
           may cause significant error
 Rotational temperatures (Kelvin)      0.04498     0.01894     0.01582
 Rotational constants (GHZ):           0.93731     0.39467     0.32953
    1 imaginary frequencies ignored.
 Zero-point vibrational energy     674371.9 (Joules/Mol)
                                  161.17876 (Kcal/Mol)
 Warning -- explicit consideration of  20 degrees of freedom as
           vibrations may cause significant error
 Vibrational temperatures:     60.23    82.34    93.27   130.40   146.70
          (Kelvin)            207.76   214.55   307.01   337.79   368.96
                              409.54   494.38   625.88   662.75   706.75
                              789.17   820.96   838.81   849.21   889.74
                              956.74  1003.60  1048.06  1095.74  1108.16
                             1112.34  1132.18  1197.43  1214.24  1250.32
                             1268.85  1288.64  1331.93  1350.32  1370.84
                             1414.29  1428.64  1464.22  1504.36  1511.24
                             1530.46  1558.24  1606.75  1622.82  1646.47
                             1667.20  1676.56  1709.19  1753.91  1768.60
                             1777.85  1836.15  1851.91  1912.45  1920.16
                             1943.95  1974.42  1983.19  2003.89  2059.53
                             2111.14  2143.18  2160.69  2166.19  2170.46
                             2195.94  2199.64  2240.47  2357.85  2402.16
                             2417.38  4170.59  4369.33  4381.42  4413.50
                             4418.60  4509.62  4550.85  4570.54  4584.74
                             4595.55  4607.98  4612.88  4620.37  4632.67
                             4720.81

 Zero-point correction=                           0.256855 (Hartree/Particle)
 Thermal correction to Energy=                    0.270558
 Thermal correction to Enthalpy=                  0.271502
 Thermal correction to Gibbs Free Energy=         0.215433
 Sum of electronic and zero-point Energies=           -672.211187
 Sum of electronic and thermal Energies=              -672.197484
 Sum of electronic and thermal Enthalpies=            -672.196540
 Sum of electronic and thermal Free Energies=         -672.252609

                     E (Thermal)             CV                S
                      KCal/Mol        Cal/Mol-Kelvin    Cal/Mol-Kelvin
 Total                  169.778             53.255            118.006
 Electronic               0.000              0.000              0.000
 Translational            0.889              2.981             41.973
 Rotational               0.889              2.981             32.245
 Vibrational            168.000             47.293             43.788
 Vibration     1          0.594              1.980              5.169
 Vibration     2          0.596              1.975              4.551
 Vibration     3          0.597              1.971              4.305
 Vibration     4          0.602              1.956              3.646
 Vibration     5          0.604              1.948              3.417
 Vibration     6          0.616              1.909              2.745
 Vibration     7          0.618              1.904              2.683
 Vibration     8          0.644              1.821              2.015
 Vibration     9          0.655              1.788              1.842
 Vibration    10          0.666              1.752              1.686
 Vibration    11          0.683              1.702              1.506
 Vibration    12          0.722              1.588              1.195
 Vibration    13          0.796              1.394              0.842
 Vibration    14          0.818              1.337              0.764
 Vibration    15          0.847              1.270              0.680
 Vibration    16          0.904              1.143              0.547
 Vibration    17          0.927              1.095              0.503
 Vibration    18          0.940              1.068              0.480
 Vibration    19          0.948              1.053              0.467
 Vibration    20          0.978              0.993              0.419

 Optimization completed on the basis of negligible forces.
    -- Stationary point found.
 Normal termination of Gaussian 16 at Sat Dec  2 18:40:25 2017.
