 Gaussian 16, Revision A.03,
 Gaussian 16:  ES64L-G16RevA.03 25-Dec-2016

 ----------------------------------------------------------------------
 #p b3lyp empiricaldispersion=gd3bj 6-31g scrf=(pcm,solvent=perfluorobe
 nzene) opt=(ts,noeigentest,calcfc) freq=noraman
 ----------------------------------------------------------------------

 ------
 TS Opt
 ------
 Symbolic Z-matrix:
 Charge =  0 Multiplicity = 1

 SCF Done:  E(RB3LYP) =  -518.650803907     A.U. after   17 cycles
 SCF Done:  E(RB3LYP) =  -518.659516038     A.U. after   14 cycles
 SCF Done:  E(RB3LYP) =  -518.660406949     A.U. after   13 cycles
 SCF Done:  E(RB3LYP) =  -518.660478046     A.U. after   12 cycles
 SCF Done:  E(RB3LYP) =  -518.660342709     A.U. after   14 cycles
 SCF Done:  E(RB3LYP) =  -518.660170377     A.U. after   14 cycles
 SCF Done:  E(RB3LYP) =  -518.660339542     A.U. after   14 cycles
 SCF Done:  E(RB3LYP) =  -518.660421833     A.U. after   14 cycles
 SCF Done:  E(RB3LYP) =  -518.660159913     A.U. after   14 cycles
 SCF Done:  E(RB3LYP) =  -518.660528759     A.U. after   14 cycles
 SCF Done:  E(RB3LYP) =  -518.660543134     A.U. after   12 cycles
 SCF Done:  E(RB3LYP) =  -518.660559092     A.U. after   11 cycles
 SCF Done:  E(RB3LYP) =  -518.660553962     A.U. after   11 cycles
 SCF Done:  E(RB3LYP) =  -518.660560870     A.U. after   11 cycles
 SCF Done:  E(RB3LYP) =  -518.660561045     A.U. after    8 cycles
 SCF Done:  E(RB3LYP) =  -518.660561043     A.U. after    7 cycles
 SCF Done:  E(RB3LYP) =  -518.660561027     A.U. after    7 cycles
 SCF Done:  E(RB3LYP) =  -518.660560912     A.U. after    9 cycles
 SCF Done:  E(RB3LYP) =  -518.660561028     A.U. after    9 cycles
 Optimization completed.
    -- Stationary point found.
 Normal termination of Gaussian 16 at Fri Dec  8 01:00:47 2017.

 -----------------------------------------------------------------
 #P Geom=AllCheck Guess=TCheck SCRF=Check GenChk RB3LYP/6-31G Freq
 -----------------------------------------------------------------

 Structure from the checkpoint file:  "/scratch/dhuang9_oac_methyl_pyrrole_ts_631g_pfb/Gau-47277.chk"
 ------
 TS Opt
 ------
 Charge =  0 Multiplicity = 1

                         Standard orientation:
 ---------------------------------------------------------------------
 Center     Atomic      Atomic             Coordinates (Angstroms)
 Number     Number       Type             X           Y           Z
 ---------------------------------------------------------------------
      1          6           0        1.331945    1.085953    0.183730
      2          6           0        2.653271    0.964655   -0.262436
      3          6           0        3.203564   -0.426826   -0.176234
      4          6           0        2.102461   -1.210379    0.596601
      5          6           0        0.928722   -0.267804    0.628272
      6          1           0        3.238373    1.806809   -0.613866
      7          1           0        3.383453   -0.862764   -1.173737
      8          1           0        4.167456   -0.482665    0.350137
      9          1           0        1.869483   -2.183501    0.150911
     10          1           0        2.432919   -1.413865    1.625186
     11          1           0        0.161656   -0.368639    1.389898
     12          8           0        0.531886    2.105368    0.201781
     13          6           0       -1.239624   -1.882742   -0.168943
     14          6           0       -2.322409   -1.217744    0.342988
     15          6           0       -0.434695   -0.909305   -0.897008
     16          1           0        0.326552   -1.150220   -1.623731
     17          6           0       -1.185045    0.298477   -0.898054
     18          1           0       -0.923769    1.267164   -1.284033
     19          6           0       -3.162018    1.198143    0.322664
     20          1           0       -2.555890    2.003895    0.744230
     21          1           0       -3.740324    1.579849   -0.522894
     22          1           0       -3.847474    0.820132    1.081624
     23          7           0       -2.273018    0.116212   -0.106030
     24          1           0       -0.990139   -2.919990   -0.009557
     25          1           0       -3.123284   -1.547196    0.984315
 ---------------------------------------------------------------------

 SCF Done:  E(RB3LYP) =  -518.660561028     A.U. after    1 cycles

 The electronic state is 1-A.
 Alpha  occ. eigenvalues --  -19.04747 -14.40411 -10.23023 -10.22866 -10.22474
 Alpha  occ. eigenvalues --  -10.21982 -10.20903 -10.20238 -10.19081 -10.18918
 Alpha  occ. eigenvalues --  -10.18210 -10.16665  -1.00643  -0.94417  -0.83541
 Alpha  occ. eigenvalues --   -0.81758  -0.74672  -0.71404  -0.69592  -0.68078
 Alpha  occ. eigenvalues --   -0.59658  -0.57216  -0.56560  -0.54468  -0.51457
 Alpha  occ. eigenvalues --   -0.47377  -0.46458  -0.45396  -0.45135  -0.43878
 Alpha  occ. eigenvalues --   -0.42378  -0.40061  -0.39601  -0.38792  -0.38453
 Alpha  occ. eigenvalues --   -0.36886  -0.35855  -0.34831  -0.33662  -0.32708
 Alpha  occ. eigenvalues --   -0.26272  -0.23599  -0.18997  -0.16543
 Alpha virt. eigenvalues --   -0.07141   0.02202   0.06340   0.08489   0.09617
 Alpha virt. eigenvalues --    0.10582   0.11666   0.13221   0.14254   0.14849
 Alpha virt. eigenvalues --    0.15202   0.16945   0.17091   0.17731   0.17866

 Mulliken charges:
               1
     1  C    0.306506
     2  C   -0.134599
     3  C   -0.301697
     4  C   -0.310803
     5  C   -0.094699
     6  H    0.122402
     7  H    0.141847
     8  H    0.143833
     9  H    0.148735
    10  H    0.166375
    11  H    0.158231
    12  O   -0.642619
    13  C   -0.148950
    14  C    0.099132
    15  C   -0.282467
    16  H    0.161058
    17  C    0.195523
    18  H    0.217967
    19  C   -0.249321
    20  H    0.206394
    21  H    0.179392
    22  H    0.166425
    23  N   -0.567154
    24  H    0.147138
    25  H    0.171350
 Sum of Mulliken charges =   0.00000

 Dipole moment (field-independent basis, Debye):
    X=             -2.9829    Y=             -4.5964    Z=              0.2326  Tot=              5.4844
 Quadrupole moment (field-independent basis, Debye-Ang):
   XX=            -56.8412   YY=            -78.5768   ZZ=            -70.1825
   XY=             -7.2846   XZ=             -3.4190   YZ=             -3.2173

  Exact polarizability: 227.682  14.123 131.720  -9.496  -6.426  83.898
 Approx polarizability: 352.447  38.450 206.878 -19.380 -10.364 121.471

 ******    1 imaginary frequencies (negative Signs) ******

                      1                      2                      3
                      A                      A                      A
 Frequencies --   -205.4228                39.3755                68.9381
 Red. masses --      8.3102                 2.2495                 2.9146
 Frc consts  --      0.2066                 0.0021                 0.0082
 IR Inten    --    334.7953                10.0169                 1.7176

                      4                      5                      6
                      A                      A                      A
 Frequencies --     83.9395               101.5963               164.5783
 Red. masses --      1.4229                 3.0537                 3.2503
 Frc consts  --      0.0059                 0.0186                 0.0519
 IR Inten    --      3.1146                 1.6244                 2.2489

                      7                      8                      9
                      A                      A                      A
 Frequencies --    183.9505               233.4688               260.0674
 Red. masses --      4.2872                 2.4977                 3.6485
 Frc consts  --      0.0855                 0.0802                 0.1454
 IR Inten    --     47.2381                11.7675                 5.0071

                     10                     11                     12
                      A                      A                      A
 Frequencies --    293.6134               375.3000               463.5327
 Red. masses --      2.8268                 2.6552                 5.0921
 Frc consts  --      0.1436                 0.2203                 0.6446
 IR Inten    --     66.1705                 1.2273                20.2764

                     13                     14                     15
                      A                      A                      A
 Frequencies --    594.4938               623.7181               637.7002
 Red. masses --      2.2224                 2.9288                 3.0588
 Frc consts  --      0.4628                 0.6713                 0.7329
 IR Inten    --     88.6109                 5.2769                35.7280

                     16                     17                     18
                      A                      A                      A
 Frequencies --    657.2887               677.3071               724.6691
 Red. masses --      5.5078                 4.4003                 1.7099
 Frc consts  --      1.4020                 1.1893                 0.5291
 IR Inten    --     14.0531                 8.2823                 9.7332

                     19                     20                     21
                      A                      A                      A
 Frequencies --    730.3680               776.0576               787.7008
 Red. masses --      1.5888                 1.6111                 2.2229
 Frc consts  --      0.4993                 0.5717                 0.8126
 IR Inten    --     30.8537                47.2084                46.1952

                     22                     23                     24
                      A                      A                      A
 Frequencies --    854.1417               879.3959               900.6206
 Red. masses --      1.4170                 1.3186                 3.6954
 Frc consts  --      0.6091                 0.6008                 1.7660
 IR Inten    --      8.8047                21.3391                91.9006

                     25                     26                     27
                      A                      A                      A
 Frequencies --    914.2137               939.8253               958.4218
 Red. masses --      4.2282                 1.3160                 2.5853
 Frc consts  --      2.0821                 0.6848                 1.3992
 IR Inten    --      6.7798                96.0380                15.4058

                     28                     29                     30
                      A                      A                      A
 Frequencies --    994.3883               998.5538              1030.9800
 Red. masses --      1.8731                 2.2212                 1.4719
 Frc consts  --      1.0913                 1.3049                 0.9218
 IR Inten    --     10.7493                11.4299                 1.2320

                     31                     32                     33
                      A                      A                      A
 Frequencies --   1056.4429              1067.5965              1079.5245
 Red. masses --      2.5890                 1.5678                 1.5655
 Frc consts  --      1.7025                 1.0529                 1.0749
 IR Inten    --     32.0269                25.3555                11.0222

                     34                     35                     36
                      A                      A                      A
 Frequencies --   1109.6912              1130.6711              1149.4088
 Red. masses --      1.4599                 1.2166                 1.2940
 Frc consts  --      1.0592                 0.9164                 1.0072
 IR Inten    --     11.7640                20.3359                29.0309

                     37                     38                     39
                      A                      A                      A
 Frequencies --   1166.8309              1175.9260              1224.7994
 Red. masses --      1.1925                 1.3149                 1.2782
 Frc consts  --      0.9566                 1.0713                 1.1297
 IR Inten    --      3.7461                 3.3635                30.3619

                     40                     41                     42
                      A                      A                      A
 Frequencies --   1258.8120              1268.8431              1300.7797
 Red. masses --      1.7598                 1.8342                 4.2718
 Frc consts  --      1.6430                 1.7398                 4.2586
 IR Inten    --     11.9946                21.6362                33.2950

                     43                     44                     45
                      A                      A                      A
 Frequencies --   1334.6006              1346.8724              1357.9904
 Red. masses --      1.2888                 1.9674                 1.6803
 Frc consts  --      1.3525                 2.1028                 1.8257
 IR Inten    --      5.1049                17.6933                22.4972

                     46                     47                     48
                      A                      A                      A
 Frequencies --   1364.5351              1382.7054              1419.9449
 Red. masses --      2.8656                 3.2830                 3.5728
 Frc consts  --      3.1436                 3.6982                 4.2443
 IR Inten    --    154.6076                82.0282                39.3170

                     49                     50                     51
                      A                      A                      A
 Frequencies --   1473.9050              1510.6386              1526.9634
 Red. masses --      1.3960                 1.0774                 1.0667
 Frc consts  --      1.7867                 1.4486                 1.4654
 IR Inten    --     41.8643                13.4365                20.1097

                     52                     53                     54
                      A                      A                      A
 Frequencies --   1528.7051              1534.1678              1553.8310
 Red. masses --      1.1339                 2.0593                 1.1023
 Frc consts  --      1.5612                 2.8557                 1.5681
 IR Inten    --      3.4950                67.3719                17.7356

                     55                     56                     57
                      A                      A                      A
 Frequencies --   1579.6836              1610.1986              2984.0812
 Red. masses --      3.0423                 5.6209                 1.0706
 Frc consts  --      4.4729                 8.5864                 5.6169
 IR Inten    --     37.6377               189.0982                77.0521

                     58                     59                     60
                      A                      A                      A
 Frequencies --   3028.7029              3043.2135              3072.4675
 Red. masses --      1.0834                 1.0699                 1.0326
 Frc consts  --      5.8554                 5.8380                 5.7434
 IR Inten    --     39.6586                41.2900                53.0729

                     61                     62                     63
                      A                      A                      A
 Frequencies --   3090.4765              3151.4195              3179.9478
 Red. masses --      1.0940                 1.1034                 1.1029
 Frc consts  --      6.1564                 6.4565                 6.5708
 IR Inten    --     30.8024                11.5743                 7.2038

                     64                     65                     66
                      A                      A                      A
 Frequencies --   3199.9986              3232.5501              3268.2945
 Red. masses --      1.0918                 1.0920                 1.0925
 Frc consts  --      6.5868                 6.7230                 6.8758
 IR Inten    --     14.5874                18.3846                 1.0786

                     67                     68                     69
                      A                      A                      A
 Frequencies --   3287.0272              3311.7435              3342.8495
 Red. masses --      1.0920                 1.1059                 1.0998
 Frc consts  --      6.9513                 7.1463                 7.2413
 IR Inten    --      1.5619                 3.2198                14.4819

 - Thermochemistry -
 -------------------
 Temperature   298.150 Kelvin.  Pressure   1.00000 Atm.
 Atom     1 has atomic number  6 and mass  12.00000

 Molecular mass:   163.09971 amu.
 Principal axes and moments of inertia in atomic units:
                           1         2         3
     Eigenvalues --  1017.695692628.204343306.86097
           X            0.99942  -0.03252  -0.00980
           Y            0.03236   0.99936  -0.01554
           Z            0.01030   0.01522   0.99983
 This molecule is an asymmetric top.
 Rotational symmetry number  1.
 Warning -- assumption of classical behavior for rotation
           may cause significant error
 Rotational temperatures (Kelvin)      0.08511     0.03296     0.02619
 Rotational constants (GHZ):           1.77336     0.68668     0.54576
    1 imaginary frequencies ignored.
 Zero-point vibrational energy     554200.2 (Joules/Mol)
                                  132.45704 (Kcal/Mol)
 Warning -- explicit consideration of  12 degrees of freedom as
           vibrations may cause significant error
 Vibrational temperatures:     56.65    99.19   120.77   146.17   236.79
          (Kelvin)            264.66   335.91   374.18   422.44   539.97
                              666.92   855.34   897.39   917.51   945.69
                              974.49  1042.64  1050.84  1116.57  1133.33
                             1228.92  1265.25  1295.79  1315.35  1352.20
                             1378.96  1430.70  1436.70  1483.35  1519.99
                             1536.03  1553.19  1596.60  1626.78  1653.74
                             1678.81  1691.90  1762.21  1811.15  1825.58
                             1871.53  1920.19  1937.85  1953.85  1963.26
                             1989.40  2042.98  2120.62  2173.47  2196.96
                             2199.47  2207.33  2235.62  2272.81  2316.72
                             4293.43  4357.63  4378.51  4420.60  4446.51
                             4534.19  4575.24  4604.08  4650.92  4702.35
                             4729.30  4764.86  4809.61

 Zero-point correction=                           0.211084 (Hartree/Particle)
 Thermal correction to Energy=                    0.222096
 Thermal correction to Enthalpy=                  0.223040
 Thermal correction to Gibbs Free Energy=         0.173226
 Sum of electronic and zero-point Energies=           -518.449477
 Sum of electronic and thermal Energies=              -518.438465
 Sum of electronic and thermal Enthalpies=            -518.437521
 Sum of electronic and thermal Free Energies=         -518.487335

                     E (Thermal)             CV                S
                      KCal/Mol        Cal/Mol-Kelvin    Cal/Mol-Kelvin
 Total                  139.367             41.429            104.841
 Electronic               0.000              0.000              0.000
 Translational            0.889              2.981             41.176
 Rotational               0.889              2.981             30.559
 Vibrational            137.590             35.467             33.106
 Vibration     1          0.594              1.981              5.290
 Vibration     2          0.598              1.969              4.183
 Vibration     3          0.601              1.960              3.797
 Vibration     4          0.604              1.948              3.423
 Vibration     5          0.623              1.886              2.497
 Vibration     6          0.631              1.862              2.288
 Vibration     7          0.654              1.790              1.852
 Vibration     8          0.668              1.746              1.661
 Vibration     9          0.688              1.686              1.453
 Vibration    10          0.746              1.523              1.058
 Vibration    11          0.821              1.331              0.756
 Vibration    12          0.952              1.044              0.459

 Optimization completed.
    -- Stationary point found.

 1\1\GINC-HOLY7C07210\Freq\RB3LYP\6-31G\C10H13N1O1\ROOT\08-Dec-2017\0\\
 #P Geom=AllCheck Guess=TCheck SCRF=Check GenChk RB3LYP/6-31G Freq\\TS
 Opt\\0,1\C,-1.2826174466,1.0335563257,-0.245164164\C,-2.6115028262,0.9
 317021171,0.1830527808\C,-3.151712309,-0.466369051,0.176427188\C,-2.03
 13351948,-1.2900699011,-0.5235215754\C,-0.862861733,-0.3430562053,-0.5
 938830312\H,-3.2082584267,1.79048537,0.4684388397\H,-3.3480766082,-0.8
 385136333,1.1964103183\H,-4.1049890723,-0.5628965908,-0.3632200868\H,-
 1.8011270993,-2.2307984965,-0.0117426416\H,-2.3407962907,-1.5616825525

 Normal termination of Gaussian 16 at Fri Dec  8 01:04:49 2017.
