 Gaussian 16, Revision A.03,
 Gaussian 16:  ES64L-G16RevA.03 25-Dec-2016

 ----------------------------------------------------------------------
 #p b3lyp empiricaldispersion=gd3bj 6-31g opt=modredundant freq=noraman
 ----------------------------------------------------------------------

 ---------
 TS Freeze
 ---------
 Symbolic Z-matrix:
 Charge =  0 Multiplicity = 1

 SCF Done:  E(RB3LYP) =  -920.717647530     A.U. after   19 cycles
 SCF Done:  E(RB3LYP) =  -920.741106462     A.U. after   16 cycles
 SCF Done:  E(RB3LYP) =  -920.213744298     A.U. after   19 cycles
 SCF Done:  E(RB3LYP) =  -920.734973645     A.U. after   16 cycles
 SCF Done:  E(RB3LYP) =  -920.742447848     A.U. after   13 cycles
 SCF Done:  E(RB3LYP) =  -920.745059429     A.U. after   15 cycles
 SCF Done:  E(RB3LYP) =  -920.743506569     A.U. after   16 cycles
 SCF Done:  E(RB3LYP) =  -920.747463211     A.U. after   15 cycles
 SCF Done:  E(RB3LYP) =  -920.747766914     A.U. after   16 cycles
 SCF Done:  E(RB3LYP) =  -920.751367655     A.U. after   16 cycles
 SCF Done:  E(RB3LYP) =  -920.764999824     A.U. after    7 cycles
 SCF Done:  E(RB3LYP) =  -920.765000121     A.U. after    8 cycles
 SCF Done:  E(RB3LYP) =  -920.765000412     A.U. after    8 cycles
 SCF Done:  E(RB3LYP) =  -920.765000619     A.U. after    8 cycles
 SCF Done:  E(RB3LYP) =  -920.765000724     A.U. after    8 cycles
 SCF Done:  E(RB3LYP) =  -920.765000803     A.U. after    7 cycles
 SCF Done:  E(RB3LYP) =  -920.765000864     A.U. after    7 cycles
 SCF Done:  E(RB3LYP) =  -920.765000951     A.U. after    8 cycles
 SCF Done:  E(RB3LYP) =  -920.765001036     A.U. after    8 cycles
 Optimization completed.
    -- Stationary point found.

 1\1\GINC-HOLY7C05207\FOpt\RB3LYP\6-31G\C17H22N2O2\ROOT\05-Dec-2017\0\\
 #p b3lyp empiricaldispersion=gd3bj 6-31g opt=modredundant freq=noraman
 \\TS Freeze\\0,1\C,0.6770300607,-1.9893047127,1.1459508797\C,1.5496925
 568,-2.0461380863,2.2532616993\C,2.9442816333,-1.6280045248,1.94010995
 94\C,2.8778466155,-1.2301683355,0.4433162808\C,1.4703138254,-1.4819923
 571,0.0563532791\H,1.227106912,-2.366873036,3.2371445696\H,3.276446898
 3,-0.7869066587,2.5672505016\H,3.6672219957,-2.4376827828,2.1240866992
 \H,3.1308076271,-0.1729036313,0.2801938352\H,3.5687929175,-1.805187533

 Normal termination of Gaussian 16 at Tue Dec  5 21:23:07 2017.

 -----------------------------------------------------------------
 #P Geom=AllCheck Guess=TCheck SCRF=Check GenChk RB3LYP/6-31G Freq
 -----------------------------------------------------------------

 Structure from the checkpoint file:  "/scratch/dhuang9_oac_cat1_nocp_pyrrole_freeze_br/Gau-20829.chk"
 ---------
 TS Freeze
 ---------
 Charge =  0 Multiplicity = 1

                         Standard orientation:
 ---------------------------------------------------------------------
 Center     Atomic      Atomic             Coordinates (Angstroms)
 Number     Number       Type             X           Y           Z
 ---------------------------------------------------------------------
      1          6           0        0.425595   -1.870094   -0.609409
      2          6           0        0.865667   -3.158704   -0.239642
      3          6           0        1.767725   -3.167533    0.945259
      4          6           0        1.840471   -1.675290    1.358776
      5          6           0        0.998091   -0.974360    0.362084
      6          1           0        0.570775   -4.054089   -0.774695
      7          1           0        1.376009   -3.794039    1.760817
      8          1           0        2.758914   -3.581616    0.704119
      9          1           0        1.449559   -1.502668    2.371592
     10          1           0        2.863597   -1.277493    1.359661
     11          1           0        0.761322    0.075376    0.440581
     12          8           0       -0.320355   -1.548592   -1.630264
     13          7           0       -3.221631   -1.219047   -1.248961
     14          1           0       -3.984490   -1.788085   -1.595094
     15          1           0       -2.308046   -1.536162   -1.572574
     16          6           0       -3.461281    0.223126   -1.354569
     17          1           0       -3.710300    0.550915   -2.379527
     18          1           0       -4.314730    0.488746   -0.714943
     19          8           0       -1.140122    0.896661   -1.845632
     20          1           0       -0.820181   -0.075107   -1.815703
     21          6           0       -1.788075    0.946317    0.515348
     22          6           0       -1.965348   -0.218876    1.282063
     23          6           0       -1.053802    2.010131    1.068358
     24          6           0       -1.412015   -0.310327    2.566359
     25          1           0       -2.526835   -1.037027    0.842423
     26          6           0       -0.490128    1.914410    2.343732
     27          1           0       -0.917068    2.916429    0.485184
     28          6           0       -0.667507    0.748155    3.099230
     29          1           0       -1.564218   -1.213473    3.150055
     30          1           0        0.080067    2.744445    2.748191
     31          1           0       -0.238256    0.671984    4.093408
     32          6           0       -2.265396    1.085036   -0.924589
     33          1           0       -2.562633    2.128071   -1.079079
     34          6           0        3.492031    0.671626   -0.945957
     35          6           0        2.280394    0.467926   -1.612262
     36          6           0        3.388891    1.905112   -0.243010
     37          1           0        4.147006    2.362699    0.373976
     38          6           0        2.124121    2.426806   -0.508053
     39          1           0        1.655230    3.331176   -0.157350
     40          7           0        1.467309    1.557927   -1.348215
     41          1           0        1.953202   -0.309279   -2.282244
     42          1           0        4.347610    0.013624   -0.975074
     43          1           0        0.470927    1.588090   -1.618635
 ---------------------------------------------------------------------

 SCF Done:  E(RB3LYP) =  -920.765001036     A.U. after    1 cycles

 The electronic state is 1-A.
 Alpha  occ. eigenvalues --  -19.10727 -19.08761 -14.35385 -14.27780 -10.25140
 Alpha  occ. eigenvalues --  -10.24314 -10.22566 -10.22299 -10.21459 -10.21215
 Alpha  occ. eigenvalues --  -10.20419 -10.20174 -10.19217 -10.18919 -10.18865
 Alpha  occ. eigenvalues --  -10.18823 -10.18668 -10.18549 -10.17413 -10.17073
 Alpha  occ. eigenvalues --  -10.16718  -0.99460  -0.97614  -0.96484  -0.87258
 Alpha  occ. eigenvalues --   -0.85898  -0.85098  -0.76550  -0.76253  -0.74480
 Alpha  occ. eigenvalues --   -0.73899  -0.71992  -0.71500  -0.70011  -0.61889
 Alpha  occ. eigenvalues --   -0.60474  -0.60209  -0.57773  -0.56771  -0.56136
 Alpha  occ. eigenvalues --   -0.55082  -0.54086  -0.51949  -0.50157  -0.49096
 Alpha  occ. eigenvalues --   -0.48354  -0.46791  -0.45371  -0.44599  -0.43903
 Alpha  occ. eigenvalues --   -0.43301  -0.42399  -0.42082  -0.41648  -0.40988
 Alpha  occ. eigenvalues --   -0.39941  -0.39586  -0.39030  -0.38829  -0.38531
 Alpha  occ. eigenvalues --   -0.38199  -0.37966  -0.37573  -0.37249  -0.35683
 Alpha  occ. eigenvalues --   -0.35531  -0.34747  -0.33710  -0.30035  -0.26310
 Alpha  occ. eigenvalues --   -0.25121  -0.23928  -0.23659  -0.23099  -0.22182
 Alpha  occ. eigenvalues --   -0.20246  -0.19494
 Alpha virt. eigenvalues --   -0.11360  -0.00459   0.00070   0.04566   0.06408
 Alpha virt. eigenvalues --    0.07490   0.08692   0.08981   0.10836   0.11363
 Alpha virt. eigenvalues --    0.12525   0.12994   0.13864   0.14060   0.14192

 Mulliken charges:
               1
     1  C    0.342114
     2  C   -0.085130
     3  C   -0.323967
     4  C   -0.344510
     5  C   -0.031813
     6  H    0.159377
     7  H    0.170095
     8  H    0.170615
     9  H    0.184842
    10  H    0.192907
    11  H    0.218503
    12  O   -0.658363
    13  N   -0.751681
    14  H    0.272181
    15  H    0.330020
    16  C   -0.091434
    17  H    0.122241
    18  H    0.125951
    19  O   -0.669039
    20  H    0.412613
    21  C    0.071688
    22  C   -0.144777
    23  C   -0.160440
    24  C   -0.148534
    25  H    0.196460
    26  C   -0.127784
    27  H    0.125150
    28  C   -0.130442
    29  H    0.120755
    30  H    0.124535
    31  H    0.121524
    32  C    0.018141
    33  H    0.136307
    34  C   -0.173805
    35  C    0.038977
    36  C   -0.181119
    37  H    0.122078
    38  C    0.084811
    39  H    0.145210
    40  N   -0.670969
    41  H    0.181991
    42  H    0.120631
    43  H    0.384090
 Sum of Mulliken charges =   0.00000

 Dipole moment (field-independent basis, Debye):
    X=              1.8400    Y=             -2.0954    Z=              4.0196  Tot=              4.8921
 Quadrupole moment (field-independent basis, Debye-Ang):
   XX=           -121.0187   YY=           -112.2060   ZZ=           -129.0764
   XY=             -6.3855   XZ=              7.5577   YZ=             -0.7553

  Exact polarizability: 189.914  21.651 252.948  22.603  -9.356 176.478
 Approx polarizability: 273.841  53.595 491.731  51.401 -13.793 292.379

                      1                      2                      3
                      A                      A                      A
 Frequencies --     35.8406                44.1326                51.4196
 Red. masses --      5.0195                 4.0774                 5.1978
 Frc consts  --      0.0038                 0.0047                 0.0081
 IR Inten    --      0.2652                 5.8106                 0.5080

                      4                      5                      6
                      A                      A                      A
 Frequencies --     58.3585                72.3544                81.3603
 Red. masses --      4.1206                 4.1724                 4.2756
 Frc consts  --      0.0083                 0.0129                 0.0167
 IR Inten    --      0.1986                 1.8948                 4.2665

                      7                      8                      9
                      A                      A                      A
 Frequencies --     90.8989               100.0599               111.0135
 Red. masses --      4.4391                 4.1120                 4.1175
 Frc consts  --      0.0216                 0.0243                 0.0299
 IR Inten    --      2.4266                 3.4207                 9.0647

                     10                     11                     12
                      A                      A                      A
 Frequencies --    117.9000               148.0525               157.2947
 Red. masses --      3.9689                 4.5287                 5.0675
 Frc consts  --      0.0325                 0.0585                 0.0739
 IR Inten    --     16.9132                11.1965                 2.5051

                     13                     14                     15
                      A                      A                      A
 Frequencies --    169.1309               188.0107               199.1973
 Red. masses --      4.3550                 2.9753                 3.8341
 Frc consts  --      0.0734                 0.0620                 0.0896
 IR Inten    --      0.3835                 8.2588                 0.5329

                     16                     17                     18
                      A                      A                      A
 Frequencies --    209.9235               267.9800               269.1406
 Red. masses --      2.1383                 4.1529                 3.0131
 Frc consts  --      0.0555                 0.1757                 0.1286
 IR Inten    --      4.2783                 8.1924                62.8069

                     19                     20                     21
                      A                      A                      A
 Frequencies --    318.0631               337.1640               356.5843
 Red. masses --      4.1972                 4.8714                 1.4345
 Frc consts  --      0.2502                 0.3263                 0.1075
 IR Inten    --      2.9006                20.9145                44.8445

                     22                     23                     24
                      A                      A                      A
 Frequencies --    376.6356               426.0045               474.4137
 Red. masses --      2.3540                 2.8970                 5.7568
 Frc consts  --      0.1967                 0.3098                 0.7634
 IR Inten    --     32.8388                 1.5122                11.0692

                     25                     26                     27
                      A                      A                      A
 Frequencies --    524.5631               563.9286               572.3748
 Red. masses --      3.6120                 2.5436                 3.2801
 Frc consts  --      0.5856                 0.4766                 0.6331
 IR Inten    --      0.9329                 6.2241                17.6332

                     28                     29                     30
                      A                      A                      A
 Frequencies --    633.1815               643.2934               653.1007
 Red. masses --      3.1283                 3.9145                 6.3458
 Frc consts  --      0.7389                 0.9544                 1.5948
 IR Inten    --      7.8073                 5.9525                 1.3462

                     31                     32                     33
                      A                      A                      A
 Frequencies --    671.4633               697.4695               719.6237
 Red. masses --      7.6024                 3.1747                 1.3910
 Frc consts  --      2.0195                 0.9099                 0.4244
 IR Inten    --     11.0676                30.3990                21.9247

                     34                     35                     36
                      A                      A                      A
 Frequencies --    736.5241               756.3553               768.4986
 Red. masses --      1.8672                 1.2685                 1.7156
 Frc consts  --      0.5968                 0.4275                 0.5970
 IR Inten    --     52.8294                18.9094               106.2554

                     37                     38                     39
                      A                      A                      A
 Frequencies --    782.9577               786.2005               791.6733
 Red. masses --      1.1849                 5.2858                 1.7483
 Frc consts  --      0.4279                 1.9250                 0.6456
 IR Inten    --    113.7242                 0.3337                84.3502

                     40                     41                     42
                      A                      A                      A
 Frequencies --    828.8766               850.2606               867.4765
 Red. masses --      2.6060                 1.2068                 1.2656
 Frc consts  --      1.0549                 0.5140                 0.5611
 IR Inten    --      7.6044                99.5847                16.9106

                     43                     44                     45
                      A                      A                      A
 Frequencies --    892.3453               896.6674               905.1616
 Red. masses --      3.1441                 1.3176                 1.9381
 Frc consts  --      1.4750                 0.6242                 0.9356
 IR Inten    --     62.4116                 5.8767                14.9544

                     46                     47                     48
                      A                      A                      A
 Frequencies --    913.0035               917.4451               921.8002
 Red. masses --      1.7677                 4.0007                 2.3356
 Frc consts  --      0.8682                 1.9840                 1.1693
 IR Inten    --     17.1185                 2.6936                10.2656

                     49                     50                     51
                      A                      A                      A
 Frequencies --    930.8237               965.2945               978.9974
 Red. masses --      1.6444                 1.6256                 1.3798
 Frc consts  --      0.8394                 0.8925                 0.7792
 IR Inten    --      7.7877                24.4566                67.9088

                     52                     53                     54
                      A                      A                      A
 Frequencies --    988.9585               990.0282              1006.3886
 Red. masses --      2.6263                 2.2286                 1.7068
 Frc consts  --      1.5134                 1.2870                 1.0185
 IR Inten    --     33.7351                58.7352                 9.6745

                     55                     56                     57
                      A                      A                      A
 Frequencies --   1015.0080              1025.8477              1037.8415
 Red. masses --      1.3155                 1.9722                 4.9557
 Frc consts  --      0.7985                 1.2228                 3.1450
 IR Inten    --      1.2140                23.9028                 0.1902

                     58                     59                     60
                      A                      A                      A
 Frequencies --   1057.5169              1059.9904              1072.9996
 Red. masses --      1.5088                 1.8118                 1.9780
 Frc consts  --      0.9942                 1.1994                 1.3417
 IR Inten    --     82.1466                19.5720                 7.0603

                     61                     62                     63
                      A                      A                      A
 Frequencies --   1077.4470              1084.3541              1094.2476
 Red. masses --      1.5145                 1.2896                 1.2782
 Frc consts  --      1.0359                 0.8934                 0.9017
 IR Inten    --      0.3081               120.8578               129.6954

                     64                     65                     66
                      A                      A                      A
 Frequencies --   1108.0268              1119.3013              1124.6854
 Red. masses --      1.3921                 1.7472                 1.3973
 Frc consts  --      1.0070                 1.2897                 1.0414
 IR Inten    --     26.4043                14.7031                11.3210

                     67                     68                     69
                      A                      A                      A
 Frequencies --   1150.3188              1151.3334              1188.5865
 Red. masses --      2.5457                 1.2349                 4.5388
 Frc consts  --      1.9847                 0.9645                 3.7779
 IR Inten    --     16.3816                 3.7485                 4.3284

                     70                     71                     72
                      A                      A                      A
 Frequencies --   1204.7479              1210.8676              1221.1923
 Red. masses --      1.1332                 1.2483                 1.0785
 Frc consts  --      0.9690                 1.0784                 0.9476
 IR Inten    --      8.4759                15.8803                 0.4894

                     73                     74                     75
                      A                      A                      A
 Frequencies --   1238.7277              1239.7106              1255.3022
 Red. masses --      1.6786                 1.1656                 2.4529
 Frc consts  --      1.5176                 1.0554                 2.2773
 IR Inten    --     24.4331                 2.2048                 0.9522

                     76                     77                     78
                      A                      A                      A
 Frequencies --   1270.6365              1288.9566              1297.0371
 Red. masses --      2.6179                 1.7474                 1.2077
 Frc consts  --      2.4903                 1.7105                 1.1971
 IR Inten    --     47.1628                30.7539                 3.3257

                     79                     80                     81
                      A                      A                      A
 Frequencies --   1344.0323              1347.4680              1356.6797
 Red. masses --      1.6091                 1.6785                 1.5496
 Frc consts  --      1.7126                 1.7956                 1.6804
 IR Inten    --     53.4040                14.9039                20.4884

                     82                     83                     84
                      A                      A                      A
 Frequencies --   1356.8606              1368.8140              1386.1645
 Red. masses --      1.7590                 3.0174                 3.8148
 Frc consts  --      1.9080                 3.3309                 4.3186
 IR Inten    --     86.8554                 3.1534                78.6194

                     85                     86                     87
                      A                      A                      A
 Frequencies --   1389.6215              1422.2822              1426.0565
 Red. masses --      1.5727                 1.4318                 3.9603
 Frc consts  --      1.7893                 1.7065                 4.7452
 IR Inten    --     14.8822                 3.9962                62.2774

                     88                     89                     90
                      A                      A                      A
 Frequencies --   1460.8390              1485.0518              1490.5281
 Red. masses --      1.3439                 2.0172                 1.1783
 Frc consts  --      1.6898                 2.6211                 1.5424
 IR Inten    --      7.0384                19.0597                17.3662

                     91                     92                     93
                      A                      A                      A
 Frequencies --   1508.7309              1511.4705              1513.7830
 Red. masses --      1.1035                 2.0338                 2.3310
 Frc consts  --      1.4799                 2.7375                 3.1472
 IR Inten    --     10.4149                 9.6924                 0.7603

                     94                     95                     96
                      A                      A                      A
 Frequencies --   1533.0429              1549.3221              1555.8235
 Red. masses --      1.3131                 1.6049                 1.2809
 Frc consts  --      1.8183                 2.2698                 1.8268
 IR Inten    --     43.1038                 9.9317                 7.1060

                     97                     98                     99
                      A                      A                      A
 Frequencies --   1599.6038              1636.3025              1653.6196
 Red. masses --      4.4165                 5.3179                 1.4353
 Frc consts  --      6.6582                 8.3891                 2.3125
 IR Inten    --    283.9814                 4.0537                23.4272

                    100                    101                    102
                      A                      A                      A
 Frequencies --   1661.2765              1741.1955              2803.0375
 Red. masses --      5.2380                 1.0818                 1.0805
 Frc consts  --      8.5172                 1.9323                 5.0019
 IR Inten    --      6.8866                43.6534               751.7286

                    103                    104                    105
                      A                      A                      A
 Frequencies --   2957.4802              3018.1048              3038.1768
 Red. masses --      1.0704                 1.0596                 1.0884
 Frc consts  --      5.5163                 5.6867                 5.9193
 IR Inten    --    112.8232                22.8369                51.1256

                    106                    107                    108
                      A                      A                      A
 Frequencies --   3039.1736              3046.0324              3069.9163
 Red. masses --      1.0958                 1.0652                 1.0846
 Frc consts  --      5.9636                 5.8231                 6.0227
 IR Inten    --      6.0906                 6.6330                37.7904

                    109                    110                    111
                      A                      A                      A
 Frequencies --   3079.7191              3181.7049              3187.0493
 Red. masses --      1.0951                 1.0857                 1.0880
 Frc consts  --      6.1198                 6.4755                 6.5111
 IR Inten    --      6.5567                 7.5348                10.8050

                    112                    113                    114
                      A                      A                      A
 Frequencies --   3197.9459              3204.2854              3218.6809
 Red. masses --      1.0922                 1.0950                 1.0991
 Frc consts  --      6.5812                 6.6242                 6.7088
 IR Inten    --     14.4929                28.3804                26.9158

                    115                    116                    117
                      A                      A                      A
 Frequencies --   3242.9304              3243.1541              3267.3474
 Red. masses --      1.0925                 1.0923                 1.0901
 Frc consts  --      6.7693                 6.7688                 6.8563
 IR Inten    --    274.2684               561.4631                 5.0465

                    118                    119                    120
                      A                      A                      A
 Frequencies --   3283.2046              3302.6768              3308.3133
 Red. masses --      1.0954                 1.0936                 1.0996
 Frc consts  --      6.9572                 7.0281                 7.0905
 IR Inten    --      8.0690                 6.3166                 2.5677

                    121                    122                    123
                      A                      A                      A
 Frequencies --   3318.0019              3460.9009              3621.5763
 Red. masses --      1.1051                 1.0534                 1.0917
 Frc consts  --      7.1684                 7.4342                 8.4363
 IR Inten    --     16.7661               211.8458                29.1220

 - Thermochemistry -
 -------------------
 Temperature   298.150 Kelvin.  Pressure   1.00000 Atm.
 Atom     1 has atomic number  6 and mass  12.00000

 Molecular mass:   286.16813 amu.
 Principal axes and moments of inertia in atomic units:
                           1         2         3
     Eigenvalues --  5031.903206432.970206965.94748
           X            0.99917  -0.01015   0.03933
           Y            0.01135   0.99947  -0.03059
           Z           -0.03900   0.03101   0.99876
 This molecule is an asymmetric top.
 Rotational symmetry number  1.
 Warning -- assumption of classical behavior for rotation
           may cause significant error
 Rotational temperatures (Kelvin)      0.01721     0.01346     0.01243
 Rotational constants (GHZ):           0.35866     0.28055     0.25908
 Zero-point vibrational energy     961787.6 (Joules/Mol)
                                  229.87276 (Kcal/Mol)
 Warning -- explicit consideration of  27 degrees of freedom as
           vibrations may cause significant error
 Vibrational temperatures:     51.57    63.50    73.98    83.96   104.10
          (Kelvin)            117.06   130.78   143.96   159.72   169.63
                              213.01   226.31   243.34   270.51   286.60
                              302.03   385.56   387.23   457.62   485.10
                              513.05   541.89   612.93   682.58   754.73
                              811.37   823.52   911.01   925.56   939.67
                              966.09  1003.50  1035.38  1059.69  1088.23
                             1105.70  1126.50  1131.17  1139.04  1192.57
                             1223.34  1248.11  1283.89  1290.10  1302.33
                             1313.61  1320.00  1326.26  1339.25  1388.84
                             1408.56  1422.89  1424.43  1447.97  1460.37
                             1475.97  1493.22  1521.53  1525.09  1543.81
                             1550.21  1560.14  1574.38  1594.20  1610.42
                             1618.17  1655.05  1656.51  1710.11  1733.36
                             1742.17  1757.02  1782.25  1783.67  1806.10
                             1828.16  1854.52  1866.15  1933.76  1938.71
                             1951.96  1952.22  1969.42  1994.38  1999.36
                             2046.35  2051.78  2101.82  2136.66  2144.54
                             2170.73  2174.67  2178.00  2205.71  2229.13
                             2238.48  2301.47  2354.27  2379.19  2390.21
                             2505.19  4032.95  4255.15  4342.38  4371.26
                             4372.69  4382.56  4416.92  4431.03  4577.76
                             4585.45  4601.13  4610.25  4630.96  4665.85
                             4666.18  4700.98  4723.80  4751.82  4759.93
                             4773.86  4979.46  5210.64

 Zero-point correction=                           0.366326 (Hartree/Particle)
 Thermal correction to Energy=                    0.386715
 Thermal correction to Enthalpy=                  0.387660
 Thermal correction to Gibbs Free Energy=         0.316287
 Sum of electronic and zero-point Energies=           -920.398675
 Sum of electronic and thermal Energies=              -920.378286
 Sum of electronic and thermal Enthalpies=            -920.377341
 Sum of electronic and thermal Free Energies=         -920.448714

                     E (Thermal)             CV                S
                      KCal/Mol        Cal/Mol-Kelvin    Cal/Mol-Kelvin
 Total                  242.668             77.158            150.216
 Electronic               0.000              0.000              0.000
 Translational            0.889              2.981             42.852
 Rotational               0.889              2.981             33.777
 Vibrational            240.890             71.197             73.587
 Vibration     1          0.594              1.982              5.477
 Vibration     2          0.595              1.980              5.064
 Vibration     3          0.596              1.977              4.762
 Vibration     4          0.596              1.974              4.512
 Vibration     5          0.598              1.967              4.088
 Vibration     6          0.600              1.962              3.858
 Vibration     7          0.602              1.956              3.641
 Vibration     8          0.604              1.949              3.453
 Vibration     9          0.607              1.940              3.251
 Vibration    10          0.608              1.934              3.135
 Vibration    11          0.617              1.905              2.697
 Vibration    12          0.621              1.894              2.582
 Vibration    13          0.625              1.880              2.445
 Vibration    14          0.633              1.856              2.247
 Vibration    15          0.637              1.841              2.140
 Vibration    16          0.642              1.826              2.044
 Vibration    17          0.673              1.732              1.609
 Vibration    18          0.674              1.730              1.602
 Vibration    19          0.704              1.639              1.320
 Vibration    20          0.718              1.601              1.226
 Vibration    21          0.732              1.562              1.137
 Vibration    22          0.747              1.520              1.053
 Vibration    23          0.788              1.414              0.872
 Vibration    24          0.831              1.307              0.725
 Vibration    25          0.880              1.196              0.599
 Vibration    26          0.920              1.109              0.516
 Vibration    27          0.929              1.091              0.500

                           ! Non-Optimized Parameters !

 1\1\GINC-HOLY7C05207\Freq\RB3LYP\6-31G\C17H22N2O2\ROOT\05-Dec-2017\0\\
 #P Geom=AllCheck Guess=TCheck SCRF=Check GenChk RB3LYP/6-31G Freq\\TS
 Freeze\\0,1\C,0.6770300607,-1.9893047127,1.1459508797\C,1.5496925568,-
 2.0461380863,2.2532616993\C,2.9442816333,-1.6280045248,1.9401099594\C,
 2.8778466155,-1.2301683355,0.4433162808\C,1.4703138254,-1.4819923571,0
 .0563532791\H,1.227106912,-2.366873036,3.2371445696\H,3.2764468983,-0.
 7869066587,2.5672505016\H,3.6672219957,-2.4376827828,2.1240866992\H,3.
 1308076271,-0.1729036313,0.2801938352\H,3.5687929175,-1.8051875333,-0.

 Normal termination of Gaussian 16 at Tue Dec  5 21:39:25 2017.
