 Gaussian 16, Revision A.03,
 Gaussian 16:  ES64L-G16RevA.03 25-Dec-2016

 ----------------------------------------------------------------------
 #p b3lyp empiricaldispersion=gd3bj 6-31g* scrf=(pcm,solvent=perfluorob
 enzene) opt=(ts,noeigentest,calcfc) freq=noraman
 ----------------------------------------------------------------------

 ------
 TS Opt
 ------
 Symbolic Z-matrix:
 Charge =  0 Multiplicity = 1

 SCF Done:  E(RB3LYP) =  -518.791207315     A.U. after   17 cycles
 SCF Done:  E(RB3LYP) =  -518.799087431     A.U. after   14 cycles
 SCF Done:  E(RB3LYP) =  -518.799753734     A.U. after   13 cycles
 SCF Done:  E(RB3LYP) =  -518.799804529     A.U. after   12 cycles
 SCF Done:  E(RB3LYP) =  -518.799585453     A.U. after   14 cycles
 SCF Done:  E(RB3LYP) =  -518.799419224     A.U. after   13 cycles
 SCF Done:  E(RB3LYP) =  -518.799457731     A.U. after   13 cycles
 SCF Done:  E(RB3LYP) =  -518.799016610     A.U. after   13 cycles
 SCF Done:  E(RB3LYP) =  -518.799338456     A.U. after   14 cycles
 SCF Done:  E(RB3LYP) =  -518.799668537     A.U. after   14 cycles
 SCF Done:  E(RB3LYP) =  -518.799903862     A.U. after   11 cycles
 SCF Done:  E(RB3LYP) =  -518.799612313     A.U. after   13 cycles
 SCF Done:  E(RB3LYP) =  -518.799897776     A.U. after   12 cycles
 SCF Done:  E(RB3LYP) =  -518.799902289     A.U. after   11 cycles
 SCF Done:  E(RB3LYP) =  -518.799901265     A.U. after   11 cycles
 SCF Done:  E(RB3LYP) =  -518.799913195     A.U. after   10 cycles
 SCF Done:  E(RB3LYP) =  -518.799913652     A.U. after    9 cycles
 SCF Done:  E(RB3LYP) =  -518.799913668     A.U. after    7 cycles
 SCF Done:  E(RB3LYP) =  -518.799913695     A.U. after    7 cycles
 Optimization completed.
    -- Stationary point found.
 Normal termination of Gaussian 16 at Fri Dec  8 01:50:37 2017.

 --------------------------------------------------------------------
 #P Geom=AllCheck Guess=TCheck SCRF=Check GenChk RB3LYP/6-31G(d) Freq
 --------------------------------------------------------------------

 Structure from the checkpoint file:  "/scratch/dhuang9_oac_methyl_pyrrole_ts_631gs_pfb/Gau-135468.chk"
 ------
 TS Opt
 ------
 Charge =  0 Multiplicity = 1

                         Standard orientation:
 ---------------------------------------------------------------------
 Center     Atomic      Atomic             Coordinates (Angstroms)
 Number     Number       Type             X           Y           Z
 ---------------------------------------------------------------------
      1          6           0        1.401150    1.105985    0.163634
      2          6           0        2.712856    0.880024   -0.277971
      3          6           0        3.167897   -0.537753   -0.173517
      4          6           0        2.042293   -1.218749    0.642303
      5          6           0        0.930137   -0.213379    0.643988
      6          1           0        3.354951    1.677622   -0.640789
      7          1           0        3.288534   -1.010835   -1.163799
      8          1           0        4.141341   -0.651518    0.325717
      9          1           0        1.747617   -2.201073    0.255709
     10          1           0        2.372316   -1.383391    1.677585
     11          1           0        0.154948   -0.257746    1.404334
     12          8           0        0.686945    2.148607    0.172333
     13          6           0       -1.213834   -1.833409   -0.230019
     14          6           0       -2.323708   -1.227439    0.283884
     15          6           0       -0.430405   -0.807571   -0.890137
     16          1           0        0.338283   -0.988683   -1.628859
     17          6           0       -1.215114    0.370614   -0.841729
     18          1           0       -0.976435    1.367500   -1.174476
     19          6           0       -3.262439    1.117478    0.359855
     20          1           0       -3.225017    1.976438   -0.311334
     21          1           0       -4.270808    0.696962    0.350363
     22          1           0       -3.013528    1.447191    1.372987
     23          7           0       -2.312170    0.115281   -0.099948
     24          1           0       -0.941794   -2.873235   -0.116113
     25          1           0       -3.133787   -1.609853    0.887904
 ---------------------------------------------------------------------

 SCF Done:  E(RB3LYP) =  -518.799913695     A.U. after    1 cycles

 The electronic state is 1-A.
 Alpha  occ. eigenvalues --  -19.04529 -14.40828 -10.23681 -10.23091 -10.22424
 Alpha  occ. eigenvalues --  -10.21713 -10.20395 -10.20165 -10.19288 -10.18948
 Alpha  occ. eigenvalues --  -10.18216 -10.16284  -1.00449  -0.94100  -0.82952
 Alpha  occ. eigenvalues --   -0.81434  -0.74264  -0.71084  -0.68969  -0.67233
 Alpha  occ. eigenvalues --   -0.59442  -0.56780  -0.56016  -0.54372  -0.50817
 Alpha  occ. eigenvalues --   -0.47545  -0.46135  -0.45264  -0.44697  -0.43648
 Alpha  occ. eigenvalues --   -0.42095  -0.39971  -0.39160  -0.38694  -0.37848
 Alpha  occ. eigenvalues --   -0.36343  -0.35386  -0.34482  -0.33934  -0.32620
 Alpha  occ. eigenvalues --   -0.26347  -0.23569  -0.18887  -0.16304
 Alpha virt. eigenvalues --   -0.06772   0.02202   0.06597   0.08586   0.09593
 Alpha virt. eigenvalues --    0.11172   0.11588   0.13374   0.14027   0.14435
 Alpha virt. eigenvalues --    0.15485   0.16290   0.17358   0.18033   0.18384

 Mulliken charges:
               1
     1  C    0.434861
     2  C   -0.197828
     3  C   -0.303429
     4  C   -0.306847
     5  C   -0.142199
     6  H    0.121204
     7  H    0.142473
     8  H    0.145691
     9  H    0.150381
    10  H    0.168976
    11  H    0.162204
    12  O   -0.676102
    13  C   -0.153626
    14  C    0.023416
    15  C   -0.275250
    16  H    0.171974
    17  C    0.107504
    18  H    0.216422
    19  C   -0.322749
    20  H    0.192911
    21  H    0.179688
    22  H    0.197007
    23  N   -0.352003
    24  H    0.149622
    25  H    0.165699
 Sum of Mulliken charges =   0.00000

 Dipole moment (field-independent basis, Debye):
    X=             -3.9291    Y=             -4.3984    Z=              0.3185  Tot=              5.9064
 Quadrupole moment (field-independent basis, Debye-Ang):
   XX=            -56.9519   YY=            -77.8620   ZZ=            -69.8577
   XY=             -7.7689   XZ=             -3.0796   YZ=             -2.7079

  Exact polarizability: 233.005  12.939 131.794 -11.048  -5.767  85.621
 Approx polarizability: 364.058  36.625 205.652 -20.953  -9.808 129.898

 ******    1 imaginary frequencies (negative Signs) ******

                      1                      2                      3
                      A                      A                      A
 Frequencies --   -213.5721                36.0590                59.6411
 Red. masses --      8.4989                 2.2943                 2.5040
 Frc consts  --      0.2284                 0.0018                 0.0052
 IR Inten    --    379.6745                 7.3590                 3.1795

                      4                      5                      6
                      A                      A                      A
 Frequencies --     74.9957                96.7885               150.6914
 Red. masses --      1.6019                 2.7550                 3.2971
 Frc consts  --      0.0053                 0.0152                 0.0441
 IR Inten    --      2.7122                 0.6442                 1.8780

                      7                      8                      9
                      A                      A                      A
 Frequencies --    174.7712               223.6165               241.3821
 Red. masses --      4.2915                 2.6876                 3.5795
 Frc consts  --      0.0772                 0.0792                 0.1229
 IR Inten    --     37.3623                16.6765                 1.9389

                     10                     11                     12
                      A                      A                      A
 Frequencies --    281.9119               367.2568               463.7330
 Red. masses --      2.4954                 2.6156                 4.9087
 Frc consts  --      0.1168                 0.2079                 0.6219
 IR Inten    --     57.4864                 0.2948                17.9468

                     13                     14                     15
                      A                      A                      A
 Frequencies --    577.8523               609.4305               626.9517
 Red. masses --      2.2261                 3.5095                 2.6393
 Frc consts  --      0.4380                 0.7680                 0.6112
 IR Inten    --     86.4766                 3.1530                33.3748

                     16                     17                     18
                      A                      A                      A
 Frequencies --    655.0090               671.9949               698.4218
 Red. masses --      4.9274                 4.0792                 1.5070
 Frc consts  --      1.2455                 1.0853                 0.4331
 IR Inten    --     14.4830                12.2136                 5.1385

                     19                     20                     21
                      A                      A                      A
 Frequencies --    709.6726               756.1115               775.6722
 Red. masses --      2.3955                 1.4927                 2.2124
 Frc consts  --      0.7108                 0.5028                 0.7843
 IR Inten    --     12.5591                56.7772                33.6274

                     22                     23                     24
                      A                      A                      A
 Frequencies --    838.5739               844.7225               887.6775
 Red. masses --      1.4346                 1.2713                 4.9329
 Frc consts  --      0.5944                 0.5345                 2.2901
 IR Inten    --      7.4960                 9.2881                42.1460

                     25                     26                     27
                      A                      A                      A
 Frequencies --    910.3426               923.3483               946.0008
 Red. masses --      2.7087                 1.3316                 2.6217
 Frc consts  --      1.3226                 0.6689                 1.3824
 IR Inten    --     98.5454                32.7710                50.6814

                     28                     29                     30
                      A                      A                      A
 Frequencies --    982.3811               991.6649              1013.0705
 Red. masses --      1.6976                 2.0231                 1.4728
 Frc consts  --      0.9653                 1.1722                 0.8906
 IR Inten    --      7.7090                10.0590                 1.2472

                     31                     32                     33
                      A                      A                      A
 Frequencies --   1047.5872              1060.1672              1071.9107
 Red. masses --      1.5495                 2.2911                 1.5237
 Frc consts  --      1.0019                 1.5172                 1.0315
 IR Inten    --     71.0715                 1.0635                 1.5213

                     34                     35                     36
                      A                      A                      A
 Frequencies --   1095.0899              1115.5333              1127.7549
 Red. masses --      1.3238                 1.2568                 1.2823
 Frc consts  --      0.9353                 0.9214                 0.9609
 IR Inten    --     21.8779                22.9709                38.5708

                     37                     38                     39
                      A                      A                      A
 Frequencies --   1148.5667              1157.5808              1220.6507
 Red. masses --      1.1871                 1.3165                 1.2171
 Frc consts  --      0.9227                 1.0394                 1.0685
 IR Inten    --      3.6104                 7.1658                28.6593

                     40                     41                     42
                      A                      A                      A
 Frequencies --   1243.5316              1274.8024              1299.8630
 Red. masses --      1.8008                 2.2449                 3.4906
 Frc consts  --      1.6407                 2.1495                 3.4750
 IR Inten    --     16.6262                 3.0024                23.6094

                     43                     44                     45
                      A                      A                      A
 Frequencies --   1313.3928              1339.3888              1349.2592
 Red. masses --      1.3585                 1.8074                 2.0897
 Frc consts  --      1.3807                 1.9104                 2.2414
 IR Inten    --      7.9042                79.3847                27.3693

                     46                     47                     48
                      A                      A                      A
 Frequencies --   1382.3148              1396.1685              1424.6794
 Red. masses --      2.8737                 3.3261                 3.5884
 Frc consts  --      3.2353                 3.8199                 4.2912
 IR Inten    --     83.9078                54.6779                36.5644

                     49                     50                     51
                      A                      A                      A
 Frequencies --   1469.4187              1490.0714              1511.0152
 Red. masses --      1.3200                 1.0785                 1.0418
 Frc consts  --      1.6793                 1.4109                 1.4014
 IR Inten    --     54.2049                 9.8012                14.8683

                     52                     53                     54
                      A                      A                      A
 Frequencies --   1514.9838              1529.7388              1534.1041
 Red. masses --      1.0920                 1.1348                 2.7256
 Frc consts  --      1.4767                 1.5646                 3.7795
 IR Inten    --      0.2231                36.1792                94.4903

                     55                     56                     57
                      A                      A                      A
 Frequencies --   1592.2665              1662.0333              2970.7580
 Red. masses --      3.4930                 7.8129                 1.0746
 Frc consts  --      5.2177                12.7157                 5.5875
 IR Inten    --     22.1189               303.6549                80.3295

                     58                     59                     60
                      A                      A                      A
 Frequencies --   3022.7972              3040.2718              3074.6724
 Red. masses --      1.0841                 1.0682                 1.0341
 Frc consts  --      5.8362                 5.8173                 5.7596
 IR Inten    --     56.7102                34.7859                48.5103

                     61                     62                     63
                      A                      A                      A
 Frequencies --   3081.0247              3145.2727              3176.2943
 Red. masses --      1.0955                 1.1051                 1.1047
 Frc consts  --      6.1269                 6.4410                 6.5668
 IR Inten    --     35.2095                15.2485                 6.0796

                     64                     65                     66
                      A                      A                      A
 Frequencies --   3187.8110              3204.7611              3251.9341
 Red. masses --      1.0912                 1.0906                 1.0919
 Frc consts  --      6.5334                 6.5997                 6.8033
 IR Inten    --     18.9639                24.7745                 0.5968

                     67                     68                     69
                      A                      A                      A
 Frequencies --   3266.6851              3285.8658              3318.1989
 Red. masses --      1.0912                 1.1047                 1.0983
 Frc consts  --      6.8606                 7.0275                 7.1249
 IR Inten    --      1.0054                 2.2890                11.7764

 - Thermochemistry -
 -------------------
 Temperature   298.150 Kelvin.  Pressure   1.00000 Atm.
 Atom     1 has atomic number  6 and mass  12.00000

 Molecular mass:   163.09971 amu.
 Principal axes and moments of inertia in atomic units:
                           1         2         3
     Eigenvalues --  1002.272892681.848003348.63887
           X            0.99943  -0.03224  -0.00978
           Y            0.03210   0.99938  -0.01436
           Z            0.01024   0.01404   0.99985
 This molecule is an asymmetric top.
 Rotational symmetry number  1.
 Warning -- assumption of classical behavior for rotation
           may cause significant error
 Rotational temperatures (Kelvin)      0.08642     0.03230     0.02587
 Rotational constants (GHZ):           1.80065     0.67295     0.53895
    1 imaginary frequencies ignored.
 Zero-point vibrational energy     550210.2 (Joules/Mol)
                                  131.50340 (Kcal/Mol)
 Warning -- explicit consideration of  13 degrees of freedom as
           vibrations may cause significant error
 Vibrational temperatures:     51.88    85.81   107.90   139.26   216.81
          (Kelvin)            251.46   321.73   347.29   405.61   528.40
                              667.21   831.40   876.83   902.04   942.41
                              966.85  1004.87  1021.06  1087.88  1116.02
                             1206.52  1215.37  1277.17  1309.78  1328.49
                             1361.08  1413.43  1426.78  1457.58  1507.24
                             1525.34  1542.24  1575.59  1605.00  1622.59
                             1652.53  1665.50  1756.24  1789.16  1834.16
                             1870.21  1889.68  1927.08  1941.28  1988.84
                             2008.78  2049.80  2114.17  2143.88  2174.01
                             2179.72  2200.95  2207.23  2290.92  2391.30
                             4274.26  4349.13  4374.27  4423.77  4432.91
                             4525.35  4569.98  4586.55  4610.94  4678.81
                             4700.03  4727.63  4774.15

 Zero-point correction=                           0.209564 (Hartree/Particle)
 Thermal correction to Energy=                    0.220823
 Thermal correction to Enthalpy=                  0.221768
 Thermal correction to Gibbs Free Energy=         0.171181
 Sum of electronic and zero-point Energies=           -518.590350
 Sum of electronic and thermal Energies=              -518.579090
 Sum of electronic and thermal Enthalpies=            -518.578146
 Sum of electronic and thermal Free Energies=         -518.628733

                     E (Thermal)             CV                S
                      KCal/Mol        Cal/Mol-Kelvin    Cal/Mol-Kelvin
 Total                  138.569             42.086            106.469
 Electronic               0.000              0.000              0.000
 Translational            0.889              2.981             41.176
 Rotational               0.889              2.981             30.577
 Vibrational            136.791             36.124             34.716
 Vibration     1          0.594              1.982              5.465
 Vibration     2          0.597              1.974              4.469
 Vibration     3          0.599              1.966              4.018
 Vibration     4          0.603              1.951              3.518
 Vibration     5          0.618              1.902              2.663
 Vibration     6          0.627              1.873              2.384
 Vibration     7          0.649              1.805              1.930
 Vibration     8          0.658              1.777              1.793
 Vibration     9          0.681              1.707              1.522
 Vibration    10          0.740              1.540              1.091
 Vibration    11          0.821              1.331              0.755
 Vibration    12          0.934              1.079              0.489
 Vibration    13          0.968              1.012              0.434

 Optimization completed.
    -- Stationary point found.
 Normal termination of Gaussian 16 at Fri Dec  8 01:57:27 2017.
