 Gaussian 16, Revision A.03,
 Gaussian 16:  ES64L-G16RevA.03 25-Dec-2016

 ----------------------------------------------------------------------
 #p opt=modredundant freq=noraman b3lyp/6-31g empiricaldispersion=gd3bj
 ----------------------------------------------------------------------

 ---------
 TS Freeze
 ---------
 Symbolic Z-matrix:
 Charge =  0 Multiplicity = 1

 SCF Done:  E(RB3LYP) =  -479.364126611     A.U. after   20 cycles
 SCF Done:  E(RB3LYP) =  -479.364116531     A.U. after   11 cycles
 SCF Done:  E(RB3LYP) =  -479.364126510     A.U. after   11 cycles
 SCF Done:  E(RB3LYP) =  -479.364126746     A.U. after    9 cycles
 Optimization completed.
    -- Stationary point found.
 Normal termination of Gaussian 16 at Thu Dec  7 03:31:55 2017.

 -----------------------------------------------------------------
 #P Geom=AllCheck Guess=TCheck SCRF=Check GenChk RB3LYP/6-31G Freq
 -----------------------------------------------------------------

 Structure from the checkpoint file:  "/scratch/dhuang9_oac_pyrrole_scan_b3lyp_631g/Gau-99320.chk"
 ---------
 TS Freeze
 ---------
 Charge =  0 Multiplicity = 1

                         Standard orientation:
 ---------------------------------------------------------------------
 Center     Atomic      Atomic             Coordinates (Angstroms)
 Number     Number       Type             X           Y           Z
 ---------------------------------------------------------------------
      1          6           0       -1.287684    0.929416   -0.148768
      2          6           0       -0.661815   -0.305551   -0.614379
      3          6           0       -1.561145   -1.485794   -0.469448
      4          6           0       -2.872684   -0.903941    0.127163
      5          6           0       -2.593676    0.556224    0.239364
      6          1           0        0.199262   -0.319482   -1.271757
      7          1           0       -1.737033   -1.962820   -1.444514
      8          1           0       -1.119452   -2.264141    0.166128
      9          1           0       -3.728718   -1.122674   -0.529309
     10          1           0       -3.127118   -1.351838    1.100883
     11          1           0       -3.330220    1.278363    0.571968
     12          8           0       -0.724579    2.094654   -0.091994
     13          6           0        1.972833   -1.273500    0.567442
     14          6           0        1.153481   -0.218998    1.001185
     15          6           0        2.864144   -0.746789   -0.397822
     16          1           0        3.622278   -1.288469   -0.942083
     17          6           0        2.586562    0.621168   -0.515604
     18          1           0        3.017314    1.361978   -1.169588
     19          7           0        1.586236    0.943444    0.360898
     20          1           0        1.926569   -2.293976    0.916552
     21          1           0        0.454017   -0.171925    1.818384
     22          1           0        0.915986    1.740229    0.258198
 ---------------------------------------------------------------------

 SCF Done:  E(RB3LYP) =  -479.364126746     A.U. after    1 cycles

 The electronic state is 1-A.
 Alpha  occ. eigenvalues --  -19.06694 -14.36154 -10.23655 -10.23616 -10.21901
 Alpha  occ. eigenvalues --  -10.21775 -10.20877 -10.20510 -10.20357 -10.18571
 Alpha  occ. eigenvalues --  -10.18083  -0.98287  -0.96425  -0.85860  -0.77641
 Alpha  occ. eigenvalues --   -0.73453  -0.72186  -0.70597  -0.59445  -0.58113
 Alpha  occ. eigenvalues --   -0.57221  -0.55254  -0.53936  -0.48298  -0.47712
 Alpha  occ. eigenvalues --   -0.44641  -0.42691  -0.41342  -0.40477  -0.40038
 Alpha  occ. eigenvalues --   -0.39112  -0.38791  -0.37743  -0.37141  -0.35884
 Alpha  occ. eigenvalues --   -0.34348  -0.25400  -0.23407  -0.21151  -0.18894
 Alpha virt. eigenvalues --   -0.10133   0.03216   0.06776   0.07708   0.08358
 Alpha virt. eigenvalues --    0.11008   0.12297   0.14087   0.14975   0.15784
 Alpha virt. eigenvalues --    0.15940   0.16436   0.17016   0.18094   0.19342

 Mulliken charges:
               1
     1  C    0.311539
     2  C   -0.077332
     3  C   -0.327053
     4  C   -0.314538
     5  C   -0.101480
     6  H    0.177749
     7  H    0.170300
     8  H    0.173548
     9  H    0.162252
    10  H    0.158190
    11  H    0.149519
    12  O   -0.614877
    13  C   -0.130981
    14  C   -0.006211
    15  C   -0.176422
    16  H    0.133081
    17  C    0.072943
    18  H    0.161843
    19  N   -0.597430
    20  H    0.131554
    21  H    0.166312
    22  H    0.377492
 Sum of Mulliken charges =   0.00000

 Dipole moment (field-independent basis, Debye):
    X=             -0.8598    Y=             -4.4073    Z=             -0.4612  Tot=              4.5140
 Quadrupole moment (field-independent basis, Debye-Ang):
   XX=            -58.8185   YY=            -70.6397   ZZ=            -63.5613
   XY=              5.0648   XZ=             -3.8532   YZ=             -0.1767

  Exact polarizability: 195.963  -5.917 103.685 -14.755  -0.269  68.634
 Approx polarizability: 387.157 -31.387 188.045 -44.858   3.486 111.711

 ******    1 imaginary frequencies (negative Signs) ******

                      1                      2                      3
                      A                      A                      A
 Frequencies --    -53.8533                79.0597                89.5118
 Red. masses --      5.2057                 2.6905                 4.0454
 Frc consts  --      0.0089                 0.0099                 0.0191
 IR Inten    --    101.0337                 2.6586                 8.1700

                      4                      5                      6
                      A                      A                      A
 Frequencies --    122.7757               182.7939               200.0046
 Red. masses --      4.1967                 3.3663                 3.9122
 Frc consts  --      0.0373                 0.0663                 0.0922
 IR Inten    --     17.5124                 0.2170                 6.2138

                      7                      8                      9
                      A                      A                      A
 Frequencies --    213.2572               290.0625               470.1812
 Red. masses --      2.5888                 3.5330                 5.3368
 Frc consts  --      0.0694                 0.1751                 0.6951
 IR Inten    --      7.5700                77.7590                13.1726

                     10                     11                     12
                      A                      A                      A
 Frequencies --    594.4631               620.2599               636.8435
 Red. masses --      3.1095                 3.3528                 3.4592
 Frc consts  --      0.6474                 0.7600                 0.8266
 IR Inten    --     29.7440                31.2261                12.7353

                     13                     14                     15
                      A                      A                      A
 Frequencies --    656.0579               740.4860               772.0112
 Red. masses --      6.7309                 1.3526                 3.6374
 Frc consts  --      1.7069                 0.4370                 1.2773
 IR Inten    --      5.1097                39.7910                 3.1639

                     16                     17                     18
                      A                      A                      A
 Frequencies --    775.7420               783.5494               852.9164
 Red. masses --      1.3131                 1.1974                 1.7135
 Frc consts  --      0.4656                 0.4331                 0.7344
 IR Inten    --     48.4415               116.6060               164.0452

                     19                     20                     21
                      A                      A                      A
 Frequencies --    860.8102               862.7511               911.8247
 Red. masses --      1.4462                 1.3829                 3.2367
 Frc consts  --      0.6314                 0.6065                 1.5855
 IR Inten    --     17.8568                 9.9614                18.0023

                     22                     23                     24
                      A                      A                      A
 Frequencies --    914.7095               922.5527               959.1543
 Red. masses --      3.6887                 1.5256                 1.4095
 Frc consts  --      1.8184                 0.7650                 0.7640
 IR Inten    --     15.8799                 0.5941                 4.6339

                     25                     26                     27
                      A                      A                      A
 Frequencies --    968.4752              1004.1993              1011.6136
 Red. masses --      2.7206                 1.6575                 1.6784
 Frc consts  --      1.5034                 0.9848                 1.0120
 IR Inten    --     21.2899                59.7148                72.5716

                     28                     29                     30
                      A                      A                      A
 Frequencies --   1039.4905              1080.2544              1084.0675
 Red. masses --      1.8325                 1.4365                 1.4142
 Frc consts  --      1.1666                 0.9876                 0.9792
 IR Inten    --     34.6187                67.4951                12.4235

                     31                     32                     33
                      A                      A                      A
 Frequencies --   1111.9308              1119.7625              1152.9400
 Red. masses --      1.5680                 1.3256                 1.1467
 Frc consts  --      1.1422                 0.9793                 0.8981
 IR Inten    --      9.6344                15.0614                 0.5672

                     34                     35                     36
                      A                      A                      A
 Frequencies --   1187.4861              1208.7637              1236.2804
 Red. masses --      4.1148                 1.1506                 1.5906
 Frc consts  --      3.4187                 0.9905                 1.4323
 IR Inten    --     23.8362                25.2789                33.4943

                     37                     38                     39
                      A                      A                      A
 Frequencies --   1262.7540              1269.6274              1348.2282
 Red. masses --      2.2036                 2.0536                 1.6678
 Frc consts  --      2.0702                 1.9503                 1.7861
 IR Inten    --     34.8753                22.9622                21.9242

                     40                     41                     42
                      A                      A                      A
 Frequencies --   1355.7944              1359.3820              1367.5444
 Red. masses --      1.6831                 1.9489                 3.3404
 Frc consts  --      1.8228                 2.1219                 3.6807
 IR Inten    --     70.6887                27.5079                48.7528

                     43                     44                     45
                      A                      A                      A
 Frequencies --   1425.1968              1464.2920              1500.2126
 Red. masses --      3.7788                 2.3822                 1.0803
 Frc consts  --      4.5223                 3.0095                 1.4325
 IR Inten    --     57.1990                14.8621                10.0793

                     46                     47                     48
                      A                      A                      A
 Frequencies --   1513.1653              1521.1793              1568.2147
 Red. masses --      2.4768                 1.1265                 2.2406
 Frc consts  --      3.3413                 1.5358                 3.2466
 IR Inten    --      7.1069                 3.3435               106.4820

                     49                     50                     51
                      A                      A                      A
 Frequencies --   1639.3718              3008.3841              3027.7565
 Red. masses --      2.8037                 1.0606                 1.0956
 Frc consts  --      4.4396                 5.6557                 5.9176
 IR Inten    --     86.4768                46.8922                11.2014

                     52                     53                     54
                      A                      A                      A
 Frequencies --   3038.3680              3053.5458              3072.9602
 Red. masses --      1.0664                 1.0922                 1.0944
 Frc consts  --      5.8003                 6.0001                 6.0889
 IR Inten    --     15.1958               250.8318                33.5318

                     55                     56                     57
                      A                      A                      A
 Frequencies --   3235.2073              3242.5717              3271.4240
 Red. masses --      1.0935                 1.0926                 1.0899
 Frc consts  --      6.7433                 6.7683                 6.8726
 IR Inten    --      6.0444                 5.3725                 3.5452

                     58                     59                     60
                      A                      A                      A
 Frequencies --   3286.3505              3305.9747              3316.6743
 Red. masses --      1.0954                 1.0994                 1.1048
 Frc consts  --      6.9701                 7.0798                 7.1602
 IR Inten    --      7.7911                 2.5295                 5.8596

 - Thermochemistry -
 -------------------
 Temperature   298.150 Kelvin.  Pressure   1.00000 Atm.
 Atom     1 has atomic number  6 and mass  12.00000

 Molecular mass:   149.08406 amu.
 Principal axes and moments of inertia in atomic units:
                           1         2         3
     Eigenvalues --   836.617082246.876602774.09510
           X            0.99981   0.01683  -0.00987
           Y           -0.01681   0.99986   0.00210
           Z            0.00990  -0.00193   0.99995
 This molecule is an asymmetric top.
 Rotational symmetry number  1.
 Warning -- assumption of classical behavior for rotation
           may cause significant error
 Rotational temperatures (Kelvin)      0.10353     0.03855     0.03122
 Rotational constants (GHZ):           2.15719     0.80322     0.65057
    1 imaginary frequencies ignored.
 Zero-point vibrational energy     479530.4 (Joules/Mol)
                                  114.61052 (Kcal/Mol)
 Warning -- explicit consideration of  10 degrees of freedom as
           vibrations may cause significant error
 Vibrational temperatures:    113.75   128.79   176.65   263.00   287.76
          (Kelvin)            306.83   417.34   676.49   855.30   892.42
                              916.28   943.92  1065.39  1110.75  1116.12
                             1127.35  1227.16  1238.51  1241.31  1311.91
                             1316.06  1327.35  1380.01  1393.42  1444.82
                             1455.49  1495.59  1554.25  1559.73  1599.82
                             1611.09  1658.82  1708.53  1739.14  1778.73
                             1816.82  1826.71  1939.80  1950.69  1955.85
                             1967.59  2050.54  2106.79  2158.47  2177.11
                             2188.64  2256.31  2358.69  4328.39  4356.27
                             4371.53  4393.37  4421.30  4654.74  4665.34
                             4706.85  4728.33  4756.56  4771.95

 Zero-point correction=                           0.182643 (Hartree/Particle)
 Thermal correction to Energy=                    0.191797
 Thermal correction to Enthalpy=                  0.192741
 Thermal correction to Gibbs Free Energy=         0.147687
 Sum of electronic and zero-point Energies=           -479.181483
 Sum of electronic and thermal Energies=              -479.172329
 Sum of electronic and thermal Enthalpies=            -479.171385
 Sum of electronic and thermal Free Energies=         -479.216439

                     E (Thermal)             CV                S
                      KCal/Mol        Cal/Mol-Kelvin    Cal/Mol-Kelvin
 Total                  120.355             35.369             94.824
 Electronic               0.000              0.000              0.000
 Translational            0.889              2.981             40.908
 Rotational               0.889              2.981             30.034
 Vibrational            118.577             29.408             23.881
 Vibration     1          0.600              1.963              3.914
 Vibration     2          0.602              1.957              3.671
 Vibration     3          0.610              1.930              3.056
 Vibration     4          0.630              1.863              2.300
 Vibration     5          0.638              1.840              2.133
 Vibration     6          0.644              1.821              2.016
 Vibration     7          0.686              1.692              1.474
 Vibration     8          0.827              1.316              0.737
 Vibration     9          0.952              1.044              0.459
 Vibration    10          0.980              0.989              0.416

 Optimization completed.
    -- Stationary point found.
 Normal termination of Gaussian 16 at Thu Dec  7 03:35:17 2017.
