 Gaussian 16, Revision A.03,
 Gaussian 16:  ES64L-G16RevA.03 25-Dec-2016

 ----------------------------------------------------------------------
 #p b3lyp empiricaldispersion=gd3bj 6-31g opt=modredundant freq=noraman
 ----------------------------------------------------------------------

 -------
 TS Scan
 -------
 Symbolic Z-matrix:
 Charge =  0 Multiplicity = 1

 SCF Done:  E(RB3LYP) =  -959.724661746     A.U. after   28 cycles
 SCF Done:  E(RB3LYP) =  -959.856182729     A.U. after   19 cycles
 SCF Done:  E(RB3LYP) =  -959.979082866     A.U. after   24 cycles
 SCF Done:  E(RB3LYP) =  -959.954344467     A.U. after   19 cycles
 SCF Done:  E(RB3LYP) =  -959.995068857     A.U. after   17 cycles
 SCF Done:  E(RB3LYP) =  -960.010358248     A.U. after   19 cycles
 SCF Done:  E(RB3LYP) =  -959.979676051     A.U. after   20 cycles
 SCF Done:  E(RB3LYP) =  -960.027820197     A.U. after   16 cycles
 SCF Done:  E(RB3LYP) =  -960.038689849     A.U. after   15 cycles
 SCF Done:  E(RB3LYP) =  -960.041658859     A.U. after   17 cycles
 SCF Done:  E(RB3LYP) =  -960.057080550     A.U. after    9 cycles
 SCF Done:  E(RB3LYP) =  -960.057080833     A.U. after    8 cycles
 SCF Done:  E(RB3LYP) =  -960.057081080     A.U. after    8 cycles
 SCF Done:  E(RB3LYP) =  -960.057081314     A.U. after    8 cycles
 SCF Done:  E(RB3LYP) =  -960.057081535     A.U. after    8 cycles
 SCF Done:  E(RB3LYP) =  -960.057081840     A.U. after    8 cycles
 SCF Done:  E(RB3LYP) =  -960.057081958     A.U. after    8 cycles
 SCF Done:  E(RB3LYP) =  -960.057082021     A.U. after    8 cycles
 SCF Done:  E(RB3LYP) =  -960.057082052     A.U. after    7 cycles
 Optimization completed.
    -- Stationary point found.

 1\1\GINC-HOLY7C01207\FOpt\RB3LYP\6-31G\C18H24N2O2\ROOT\05-Dec-2017\0\\
 #p b3lyp empiricaldispersion=gd3bj 6-31g opt=modredundant freq=noraman
 \\TS Scan\\0,1\C,0.481093162,-1.5230060506,-0.0371041625\C,0.872747986
 7,-1.1681438759,1.292557124\C,2.3306808981,-0.9570601041,1.4352019537\
 C,2.8724311469,-1.0720403207,-0.0105899013\C,1.6645668999,-1.382798666
 9,-0.8170869971\H,0.1812771846,-1.103991188,2.1201983858\H,2.549667011
 2,0.0149174729,1.8915935678\H,2.7682696263,-1.7040040404,2.1146294466\
 H,3.3411899848,-0.1323203898,-0.3325333683\H,3.645818881,-1.8485787414

 Normal termination of Gaussian 16 at Tue Dec  5 18:42:47 2017.

 -----------------------------------------------------------------
 #P Geom=AllCheck Guess=TCheck SCRF=Check GenChk RB3LYP/6-31G Freq
 -----------------------------------------------------------------

 Structure from the checkpoint file:  "/scratch/dhuang9_oac_cat1_nocp_methyl_pyrrole_freeze_tl/Gau-77407.chk"
 -------
 TS Scan
 -------
 Charge =  0 Multiplicity = 1

                         Standard orientation:
 ---------------------------------------------------------------------
 Center     Atomic      Atomic             Coordinates (Angstroms)
 Number     Number       Type             X           Y           Z
 ---------------------------------------------------------------------
      1          6           0        0.551805   -0.721400   -1.619808
      2          6           0       -0.703726   -0.938069   -0.968642
      3          6           0       -1.035811   -2.370748   -0.802445
      4          6           0        0.230321   -3.111996   -1.296902
      5          6           0        1.132536   -2.016773   -1.735577
      6          1           0       -1.364808   -0.138161   -0.668050
      7          1           0       -1.281351   -2.604432    0.239712
      8          1           0       -1.935236   -2.632180   -1.380130
      9          1           0        0.680396   -3.706154   -0.490140
     10          1           0        0.016716   -3.819469   -2.112764
     11          1           0        2.125836   -2.180843   -2.137241
     12          8           0        1.056608    0.415557   -1.981609
     13          7           0        0.691168    2.791186   -0.397410
     14          1           0        0.473580    3.656425   -0.881823
     15          1           0        0.689975    1.997961   -1.048662
     16          6           0        1.930867    2.889444    0.397765
     17          1           0        2.570092    3.709794    0.044401
     18          1           0        1.693782    3.101120    1.452170
     19          8           0        3.334710    1.392524   -0.986955
     20          1           0        2.599685    1.000972   -1.541393
     21          6           0        2.163598    0.357598    0.893516
     22          6           0        0.894011    0.324707    1.484870
     23          6           0        2.882991   -0.844393    0.779624
     24          6           0        0.369600   -0.879233    1.981341
     25          1           0        0.298769    1.228828    1.516560
     26          6           0        2.367884   -2.042964    1.286083
     27          1           0        3.846015   -0.824100    0.281494
     28          6           0        1.111539   -2.062350    1.904781
     29          1           0       -0.621366   -0.886627    2.421461
     30          1           0        2.950745   -2.955915    1.207231
     31          1           0        0.713197   -2.986890    2.311145
     32          6           0        2.805694    1.626757    0.344662
     33          1           0        3.693028    1.841921    0.954242
     34          6           0       -4.116912   -0.735817    0.055000
     35          6           0       -3.886127    0.403657   -0.701094
     36          6           0       -3.448384   -0.559708    1.306615
     37          1           0       -3.433609   -1.254726    2.132646
     38          6           0       -2.827087    0.680021    1.274304
     39          1           0       -2.229456    1.194071    2.008973
     40          6           0       -2.640620    2.593245   -0.368183
     41          1           0       -2.760091    2.683020   -1.450252
     42          1           0       -3.234853    3.374372    0.118173
     43          1           0       -1.577644    2.715894   -0.123208
     44          7           0       -3.094059    1.263509    0.045753
     45          1           0       -4.213731    0.675647   -1.691318
     46          1           0       -4.703066   -1.589897   -0.248564
 ---------------------------------------------------------------------

 SCF Done:  E(RB3LYP) =  -960.057082052     A.U. after    1 cycles

 The electronic state is 1-A.
 Alpha  occ. eigenvalues --  -19.08700 -19.08326 -14.38351 -14.27796 -10.25147
 Alpha  occ. eigenvalues --  -10.23752 -10.23560 -10.21512 -10.21472 -10.21165
 Alpha  occ. eigenvalues --  -10.21007 -10.20664 -10.20507 -10.19114 -10.18964
 Alpha  occ. eigenvalues --  -10.18813 -10.18599 -10.18488 -10.18209 -10.18122
 Alpha  occ. eigenvalues --  -10.17263 -10.17217  -0.98813  -0.98515  -0.96906
 Alpha  occ. eigenvalues --   -0.87466  -0.85741  -0.84915  -0.80107  -0.76079
 Alpha  occ. eigenvalues --   -0.74778  -0.73847  -0.72621  -0.71942  -0.69499
 Alpha  occ. eigenvalues --   -0.68893  -0.61706  -0.60532  -0.60073  -0.57605
 Alpha  occ. eigenvalues --   -0.56628  -0.55422  -0.55268  -0.52964  -0.51905
 Alpha  occ. eigenvalues --   -0.49940  -0.49257  -0.47976  -0.46169  -0.46002
 Alpha  occ. eigenvalues --   -0.44798  -0.44160  -0.43909  -0.43491  -0.42612
 Alpha  occ. eigenvalues --   -0.42255  -0.42006  -0.40977  -0.40638  -0.40233
 Alpha  occ. eigenvalues --   -0.39474  -0.38412  -0.38324  -0.38073  -0.37921
 Alpha  occ. eigenvalues --   -0.37585  -0.37302  -0.36635  -0.36095  -0.34653
 Alpha  occ. eigenvalues --   -0.34301  -0.33255  -0.28164  -0.25389  -0.25017
 Alpha  occ. eigenvalues --   -0.23815  -0.23034  -0.22292  -0.21827  -0.21112
 Alpha  occ. eigenvalues --   -0.19804
 Alpha virt. eigenvalues --   -0.11682  -0.00214   0.00090   0.03176   0.06062
 Alpha virt. eigenvalues --    0.07198   0.07888   0.09183   0.10058   0.10520
 Alpha virt. eigenvalues --    0.11881   0.12739   0.12989   0.13409   0.13568

 Mulliken charges:
               1
     1  C    0.346672
     2  C   -0.042205
     3  C   -0.330597
     4  C   -0.329584
     5  C   -0.058422
     6  H    0.218664
     7  H    0.187639
     8  H    0.181476
     9  H    0.179390
    10  H    0.170519
    11  H    0.169541
    12  O   -0.637288
    13  N   -0.757892
    14  H    0.268685
    15  H    0.337486
    16  C   -0.094842
    17  H    0.130990
    18  H    0.111965
    19  O   -0.638863
    20  H    0.391938
    21  C    0.072113
    22  C   -0.150074
    23  C   -0.146180
    24  C   -0.144041
    25  H    0.165686
    26  C   -0.138674
    27  H    0.151277
    28  C   -0.132874
    29  H    0.126380
    30  H    0.122219
    31  H    0.118660
    32  C    0.015748
    33  H    0.145045
    34  C   -0.186768
    35  C    0.067790
    36  C   -0.185476
    37  H    0.121073
    38  C    0.071743
    39  H    0.155079
    40  C   -0.281067
    41  H    0.149809
    42  H    0.156521
    43  H    0.226264
    44  N   -0.574086
    45  H    0.147709
    46  H    0.120854
 Sum of Mulliken charges =   0.00000

 Dipole moment (field-independent basis, Debye):
    X=             -3.4376    Y=             -3.8950    Z=              0.4516  Tot=              5.2146
 Quadrupole moment (field-independent basis, Debye-Ang):
   XX=           -144.0376   YY=           -112.1690   ZZ=           -133.7704
   XY=             -8.3526   XZ=              9.3266   YZ=              5.1807

  Exact polarizability: 210.745   9.242 225.389  -2.381  -3.983 162.718
 Approx polarizability: 351.984  -5.211 373.784 -36.772 -10.440 271.353

                      1                      2                      3
                      A                      A                      A
 Frequencies --     23.8746                35.2842                49.3462
 Red. masses --      3.4334                 4.7335                 5.2691
 Frc consts  --      0.0012                 0.0035                 0.0076
 IR Inten    --      1.4004                 1.0644                 0.7507

                      4                      5                      6
                      A                      A                      A
 Frequencies --     54.1032                69.6491                75.5212
 Red. masses --      4.6233                 3.5765                 4.4340
 Frc consts  --      0.0080                 0.0102                 0.0149
 IR Inten    --      1.4242                 0.4613                 2.5060

                      7                      8                      9
                      A                      A                      A
 Frequencies --     84.7079                98.0793                99.6373
 Red. masses --      4.5833                 4.1734                 4.6489
 Frc consts  --      0.0194                 0.0237                 0.0272
 IR Inten    --      1.3391                 2.9753                 2.1409

                     10                     11                     12
                      A                      A                      A
 Frequencies --    108.4093               129.8198               146.8867
 Red. masses --      4.3286                 3.9356                 3.2033
 Frc consts  --      0.0300                 0.0391                 0.0407
 IR Inten    --      6.1189                 2.6716                 5.1894

                     13                     14                     15
                      A                      A                      A
 Frequencies --    157.2038               171.8847               199.9761
 Red. masses --      3.5081                 4.1629                 1.6795
 Frc consts  --      0.0511                 0.0725                 0.0396
 IR Inten    --      3.9748                 1.3757                 1.1906

                     16                     17                     18
                      A                      A                      A
 Frequencies --    201.4413               212.5827               227.5287
 Red. masses --      2.8862                 2.3343                 1.6599
 Frc consts  --      0.0690                 0.0622                 0.0506
 IR Inten    --      4.6598                 2.9620                 5.0628

                     19                     20                     21
                      A                      A                      A
 Frequencies --    234.8018               262.5087               318.5045
 Red. masses --      2.7650                 4.4350                 3.4663
 Frc consts  --      0.0898                 0.1801                 0.2072
 IR Inten    --      8.9638                22.5970                12.2470

                     22                     23                     24
                      A                      A                      A
 Frequencies --    330.4342               376.9378               386.3934
 Red. masses --      4.1584                 2.1414                 1.4988
 Frc consts  --      0.2675                 0.1793                 0.1318
 IR Inten    --      6.2443                10.0391                47.2214

                     25                     26                     27
                      A                      A                      A
 Frequencies --    403.3513               416.4649               461.9411
 Red. masses --      3.5018                 2.8456                 4.4383
 Frc consts  --      0.3357                 0.2908                 0.5580
 IR Inten    --      0.3590                 2.4878                 2.0175

                     28                     29                     30
                      A                      A                      A
 Frequencies --    499.7919               514.0903               566.4595
 Red. masses --      3.3473                 2.0913                 3.6827
 Frc consts  --      0.4926                 0.3257                 0.6962
 IR Inten    --      5.4871                 0.6092                 6.6843

                     31                     32                     33
                      A                      A                      A
 Frequencies --    635.6943               639.4619               650.8474
 Red. masses --      3.4490                 3.1731                 6.4348
 Frc consts  --      0.8212                 0.7645                 1.6060
 IR Inten    --     20.8575                 4.4307                 0.0737

                     34                     35                     36
                      A                      A                      A
 Frequencies --    670.7930               677.5627               697.6710
 Red. masses --      7.5693                 4.3793                 1.5364
 Frc consts  --      2.0067                 1.1846                 0.4406
 IR Inten    --      8.1213                 5.4279                14.5497

                     37                     38                     39
                      A                      A                      A
 Frequencies --    703.1880               727.3133               729.5865
 Red. masses --      3.6802                 1.7311                 1.4256
 Frc consts  --      1.0722                 0.5395                 0.4471
 IR Inten    --     19.3367                32.3339                12.1799

                     40                     41                     42
                      A                      A                      A
 Frequencies --    754.5334               760.9213               788.8061
 Red. masses --      1.2769                 1.8594                 5.2666
 Frc consts  --      0.4283                 0.6343                 1.9307
 IR Inten    --    135.3557                65.7128                 2.6474

                     43                     44                     45
                      A                      A                      A
 Frequencies --    822.1779               835.9722               851.3233
 Red. masses --      1.7706                 1.4724                 1.3034
 Frc consts  --      0.7052                 0.6062                 0.5566
 IR Inten    --     48.5261                71.8289                 2.7165

                     46                     47                     48
                      A                      A                      A
 Frequencies --    852.7783               881.7995               890.2582
 Red. masses --      1.1459                 2.1020                 1.2549
 Frc consts  --      0.4910                 0.9630                 0.5860
 IR Inten    --      3.3632                39.7834                 6.3238

                     49                     50                     51
                      A                      A                      A
 Frequencies --    902.9232               904.0637               919.0214
 Red. masses --      1.5024                 1.3226                 5.3689
 Frc consts  --      0.7217                 0.6369                 2.6717
 IR Inten    --      2.7377                 0.5950                 0.2393

                     52                     53                     54
                      A                      A                      A
 Frequencies --    924.5224               941.6812               974.4690
 Red. masses --      3.2127                 1.6242                 1.5126
 Frc consts  --      1.6179                 0.8486                 0.8463
 IR Inten    --      5.9056                43.3251               178.0691

                     55                     56                     57
                      A                      A                      A
 Frequencies --    990.3209               993.3462              1002.1222
 Red. masses --      2.0334                 2.9754                 1.5973
 Frc consts  --      1.1749                 1.7298                 0.9451
 IR Inten    --     26.0977                19.9589                24.4681

                     58                     59                     60
                      A                      A                      A
 Frequencies --   1004.5010              1007.0666              1019.0752
 Red. masses --      1.6489                 1.9849                 2.1045
 Frc consts  --      0.9803                 1.1861                 1.2877
 IR Inten    --      3.7749                 4.1387                 1.0084

                     61                     62                     63
                      A                      A                      A
 Frequencies --   1020.8899              1040.8299              1073.0175
 Red. masses --      1.3253                 5.3435                 2.4959
 Frc consts  --      0.8138                 3.4106                 1.6932
 IR Inten    --      0.5161                 1.8724                 4.9795

                     64                     65                     66
                      A                      A                      A
 Frequencies --   1082.7485              1088.9414              1099.9434
 Red. masses --      2.3422                 1.5373                 2.1324
 Frc consts  --      1.6178                 1.0740                 1.5200
 IR Inten    --     16.5474                 8.5201                 3.9769

                     67                     68                     69
                      A                      A                      A
 Frequencies --   1102.6988              1127.1750              1129.7807
 Red. masses --      1.5879                 1.7570                 1.2410
 Frc consts  --      1.1376                 1.3152                 0.9333
 IR Inten    --      6.3534                 0.5707                16.6011

                     70                     71                     72
                      A                      A                      A
 Frequencies --   1137.8433              1149.1654              1150.4913
 Red. masses --      1.2281                 1.1786                 2.5498
 Frc consts  --      0.9368                 0.9170                 1.9885
 IR Inten    --      6.0892                 2.9896                16.9982

                     73                     74                     75
                      A                      A                      A
 Frequencies --   1192.7659              1198.7324              1220.2730
 Red. masses --      1.2947                 1.1309                 1.0782
 Frc consts  --      1.0853                 0.9575                 0.9459
 IR Inten    --      2.4687                 0.4274                 0.5194

                     76                     77                     78
                      A                      A                      A
 Frequencies --   1239.8229              1241.6207              1245.3559
 Red. masses --      2.1486                 1.1493                 1.2231
 Frc consts  --      1.9459                 1.0439                 1.1176
 IR Inten    --      6.8341                 1.3700                 5.3018

                     79                     80                     81
                      A                      A                      A
 Frequencies --   1275.0007              1286.1255              1296.9804
 Red. masses --      2.6021                 1.8091                 1.1257
 Frc consts  --      2.4923                 1.7631                 1.1157
 IR Inten    --     19.3738                24.2538                14.1582

                     82                     83                     84
                      A                      A                      A
 Frequencies --   1322.0920              1329.1892              1340.4749
 Red. masses --      4.6459                 1.3372                 1.3670
 Frc consts  --      4.7846                 1.3920                 1.4472
 IR Inten    --     28.5190                 0.7095                28.8728

                     85                     86                     87
                      A                      A                      A
 Frequencies --   1354.4408              1360.8200              1373.1743
 Red. masses --      1.8448                 1.8589                 3.1085
 Frc consts  --      1.9940                 2.0282                 3.4534
 IR Inten    --     70.5762                77.0913                 8.1671

                     88                     89                     90
                      A                      A                      A
 Frequencies --   1381.4627              1391.5868              1401.0546
 Red. masses --      3.5950                 1.8673                 3.8944
 Frc consts  --      4.0423                 2.1305                 4.5040
 IR Inten    --     37.3594                 3.5306                 0.0694

                     91                     92                     93
                      A                      A                      A
 Frequencies --   1410.2342              1437.2474              1453.1994
 Red. masses --      1.3994                 4.1283                 1.3217
 Frc consts  --      1.6397                 5.0244                 1.6445
 IR Inten    --      7.1962                 5.4244                 9.4384

                     94                     95                     96
                      A                      A                      A
 Frequencies --   1482.2976              1491.9553              1493.9861
 Red. masses --      1.1170                 1.1651                 1.3799
 Frc consts  --      1.4461                 1.5280                 1.8147
 IR Inten    --      4.3685                69.7316                 0.0719

                     97                     98                     99
                      A                      A                      A
 Frequencies --   1496.1111              1506.2569              1545.2784
 Red. masses --      1.1640                 2.0434                 1.3381
 Frc consts  --      1.5351                 2.7316                 1.8826
 IR Inten    --     72.7243                12.5545                13.5777

                    100                    101                    102
                      A                      A                      A
 Frequencies --   1556.5049              1558.1083              1560.9210
 Red. masses --      1.9918                 2.7153                 1.1230
 Frc consts  --      2.8431                 3.8839                 1.6120
 IR Inten    --      7.6802                 6.4333                10.7740

                    103                    104                    105
                      A                      A                      A
 Frequencies --   1569.8723              1578.9791              1615.9924
 Red. masses --      1.3451                 1.1650                 5.0157
 Frc consts  --      1.9531                 1.7113                 7.7172
 IR Inten    --     10.1573                10.2855               287.1690

                    106                    107                    108
                      A                      A                      A
 Frequencies --   1634.2156              1657.7585              1756.1564
 Red. masses --      5.3318                 5.2557                 1.0765
 Frc consts  --      8.3896                 8.5099                 1.9561
 IR Inten    --      0.4231                10.9251                33.3852

                    109                    110                    111
                      A                      A                      A
 Frequencies --   2994.4671              3016.1967              3024.8193
 Red. masses --      1.0650                 1.0417                 1.0659
 Frc consts  --      5.6266                 5.5838                 5.7458
 IR Inten    --     71.9348                97.3253                16.9054

                    112                    113                    114
                      A                      A                      A
 Frequencies --   3036.2802              3037.2697              3045.9981
 Red. masses --      1.0706                 1.0921                 1.0851
 Frc consts  --      5.8150                 5.9361                 5.9318
 IR Inten    --     11.9977                35.8230               106.1546

                    115                    116                    117
                      A                      A                      A
 Frequencies --   3063.1634              3093.6239              3103.2418
 Red. masses --      1.0914                 1.0870                 1.1004
 Frc consts  --      6.0338                 6.1296                 6.2435
 IR Inten    --      8.2989                 6.9949                28.8739

                    118                    119                    120
                      A                      A                      A
 Frequencies --   3148.1098              3183.9432              3201.4777
 Red. masses --      1.0983                 1.0856                 1.0907
 Frc consts  --      6.4133                 6.4843                 6.5865
 IR Inten    --     19.3794                 3.3925                17.6609

                    121                    122                    123
                      A                      A                      A
 Frequencies --   3218.7352              3224.9414              3232.8953
 Red. masses --      1.0916                 1.0942                 1.0691
 Frc consts  --      6.6629                 6.7046                 6.5835
 IR Inten    --     10.9701                 9.0838               350.4882

                    124                    125                    126
                      A                      A                      A
 Frequencies --   3238.5860              3245.4234              3265.0871
 Red. masses --      1.0938                 1.0931                 1.0893
 Frc consts  --      6.7595                 6.7835                 6.8421
 IR Inten    --     14.7769                 1.0327                 4.9660

                    127                    128                    129
                      A                      A                      A
 Frequencies --   3279.4000              3299.0938              3300.9271
 Red. masses --      1.0941                 1.0929                 1.0989
 Frc consts  --      6.9327                 7.0085                 7.0548
 IR Inten    --      4.5702                41.9960                 2.4130

                    130                    131                    132
                      A                      A                      A
 Frequencies --   3309.7402              3365.9821              3576.1494
 Red. masses --      1.1072                 1.0608                 1.0840
 Frc consts  --      7.1462                 7.0813                 8.1682
 IR Inten    --      0.7969               370.5857                17.9688

 - Thermochemistry -
 -------------------
 Temperature   298.150 Kelvin.  Pressure   1.00000 Atm.
 Atom     1 has atomic number  6 and mass  12.00000

 Molecular mass:   300.18378 amu.
 Principal axes and moments of inertia in atomic units:
                           1         2         3
     Eigenvalues --  4829.541907342.020749028.31751
           X            0.99999  -0.00105   0.00407
           Y            0.00103   1.00000   0.00287
           Z           -0.00407  -0.00287   0.99999
 This molecule is an asymmetric top.
 Rotational symmetry number  1.
 Warning -- assumption of classical behavior for rotation
           may cause significant error
 Rotational temperatures (Kelvin)      0.01793     0.01180     0.00959
 Rotational constants (GHZ):           0.37369     0.24581     0.19990
 Zero-point vibrational energy    1034988.4 (Joules/Mol)
                                  247.36815 (Kcal/Mol)
 Warning -- explicit consideration of  30 degrees of freedom as
           vibrations may cause significant error
 Vibrational temperatures:     34.35    50.77    71.00    77.84   100.21
          (Kelvin)            108.66   121.88   141.11   143.36   155.98
                              186.78   211.34   226.18   247.30   287.72
                              289.83   305.86   327.36   337.83   377.69
                              458.26   475.42   542.33   555.93   580.33
                              599.20   664.63   719.09   739.66   815.01
                              914.62   920.04   936.42   965.12   974.86
                             1003.79  1011.73  1046.44  1049.71  1085.61
                             1094.80  1134.92  1182.93  1202.78  1224.86
                             1226.96  1268.71  1280.88  1299.11  1300.75
                             1322.27  1330.18  1354.87  1402.04  1424.85
                             1429.20  1441.83  1445.25  1448.94  1466.22
                             1468.83  1497.52  1543.83  1557.83  1566.74
                             1582.57  1586.54  1621.75  1625.50  1637.10
                             1653.39  1655.30  1716.12  1724.71  1755.70
                             1783.83  1786.42  1791.79  1834.44  1850.45
                             1866.07  1902.20  1912.41  1928.64  1948.74
                             1957.92  1975.69  1987.62  2002.18  2015.81
                             2029.01  2067.88  2090.83  2132.70  2146.59
                             2149.51  2152.57  2167.17  2223.31  2239.46
                             2241.77  2245.82  2258.70  2271.80  2325.05
                             2351.27  2385.14  2526.72  4308.37  4339.63
                             4352.04  4368.53  4369.95  4382.51  4407.21
                             4451.03  4464.87  4529.43  4580.98  4606.21
                             4631.04  4639.97  4651.42  4659.60  4669.44
                             4697.73  4718.33  4746.66  4749.30  4761.98
                             4842.90  5145.28

 Zero-point correction=                           0.394206 (Hartree/Particle)
 Thermal correction to Energy=                    0.416458
 Thermal correction to Enthalpy=                  0.417402
 Thermal correction to Gibbs Free Energy=         0.341652
 Sum of electronic and zero-point Energies=           -959.662876
 Sum of electronic and thermal Energies=              -959.640624
 Sum of electronic and thermal Enthalpies=            -959.639680
 Sum of electronic and thermal Free Energies=         -959.715430

                     E (Thermal)             CV                S
                      KCal/Mol        Cal/Mol-Kelvin    Cal/Mol-Kelvin
 Total                  261.331             83.729            159.430
 Electronic               0.000              0.000              0.000
 Translational            0.889              2.981             42.995
 Rotational               0.889              2.981             34.125
 Vibrational            259.554             77.767             82.310
 Vibration     1          0.593              1.985              6.283
 Vibration     2          0.594              1.982              5.508
 Vibration     3          0.595              1.978              4.843
 Vibration     4          0.596              1.976              4.661
 Vibration     5          0.598              1.969              4.163
 Vibration     6          0.599              1.965              4.004
 Vibration     7          0.601              1.960              3.779
 Vibration     8          0.604              1.951              3.492
 Vibration     9          0.604              1.949              3.461
 Vibration    10          0.606              1.942              3.297
 Vibration    11          0.612              1.923              2.949
 Vibration    12          0.617              1.906              2.712
 Vibration    13          0.621              1.895              2.583
 Vibration    14          0.626              1.877              2.415
 Vibration    15          0.638              1.840              2.133
 Vibration    16          0.638              1.838              2.120
 Vibration    17          0.644              1.822              2.021
 Vibration    18          0.651              1.799              1.898
 Vibration    19          0.655              1.788              1.842
 Vibration    20          0.670              1.741              1.645
 Vibration    21          0.705              1.638              1.318
 Vibration    22          0.713              1.615              1.258
 Vibration    23          0.747              1.519              1.051
 Vibration    24          0.755              1.499              1.014
 Vibration    25          0.769              1.463              0.950
 Vibration    26          0.780              1.434              0.904
 Vibration    27          0.820              1.334              0.760
 Vibration    28          0.855              1.250              0.659
 Vibration    29          0.869              1.219              0.624
 Vibration    30          0.922              1.104              0.511

                           ! Non-Optimized Parameters !

 1\1\GINC-HOLY7C01207\Freq\RB3LYP\6-31G\C18H24N2O2\ROOT\05-Dec-2017\0\\
 #P Geom=AllCheck Guess=TCheck SCRF=Check GenChk RB3LYP/6-31G Freq\\TS
 Scan\\0,1\C,0.481093162,-1.5230060506,-0.0371041625\C,0.8727479867,-1.
 1681438759,1.292557124\C,2.3306808981,-0.9570601041,1.4352019537\C,2.8
 724311469,-1.0720403207,-0.0105899013\C,1.6645668999,-1.3827986669,-0.
 8170869971\H,0.1812771846,-1.103991188,2.1201983858\H,2.5496670112,0.0
 149174729,1.8915935678\H,2.7682696263,-1.7040040404,2.1146294466\H,3.3
 411899848,-0.1323203898,-0.3325333683\H,3.645818881,-1.8485787414,-0.1

 Normal termination of Gaussian 16 at Tue Dec  5 19:07:44 2017.
