 Gaussian 16, Revision A.03,
 Gaussian 16:  ES64L-G16RevA.03 25-Dec-2016

 ----------------------------------------------------------------------
 #p b3lyp empiricaldispersion=gd3bj 6-31g opt=modredundant freq=noraman
 ----------------------------------------------------------------------

 ---------
 TS Freeze
 ---------
 Symbolic Z-matrix:
 Charge =  0 Multiplicity = 1

 SCF Done:  E(RB3LYP) =  -479.347564269     A.U. after   19 cycles
 SCF Done:  E(RB3LYP) =  -479.349318141     A.U. after   17 cycles
 SCF Done:  E(RB3LYP) =  -479.350232850     A.U. after   17 cycles
 SCF Done:  E(RB3LYP) =  -479.351204025     A.U. after   15 cycles
 SCF Done:  E(RB3LYP) =  -479.351636056     A.U. after   15 cycles
 SCF Done:  E(RB3LYP) =  -479.351870987     A.U. after   15 cycles
 SCF Done:  E(RB3LYP) =  -479.352475401     A.U. after   16 cycles
 SCF Done:  E(RB3LYP) =  -479.352592745     A.U. after   15 cycles
 SCF Done:  E(RB3LYP) =  -479.352647470     A.U. after   15 cycles
 SCF Done:  E(RB3LYP) =  -479.352705862     A.U. after   15 cycles
 SCF Done:  E(RB3LYP) =  -479.364053956     A.U. after   10 cycles
 SCF Done:  E(RB3LYP) =  -479.364057127     A.U. after   11 cycles
 SCF Done:  E(RB3LYP) =  -479.364058867     A.U. after    9 cycles
 SCF Done:  E(RB3LYP) =  -479.364060696     A.U. after   10 cycles
 SCF Done:  E(RB3LYP) =  -479.364061701     A.U. after   10 cycles
 SCF Done:  E(RB3LYP) =  -479.364062435     A.U. after   10 cycles
 SCF Done:  E(RB3LYP) =  -479.364062907     A.U. after   10 cycles
 SCF Done:  E(RB3LYP) =  -479.364063355     A.U. after    9 cycles
 SCF Done:  E(RB3LYP) =  -479.364063470     A.U. after    9 cycles
 Optimization completed.
    -- Stationary point found.
 Normal termination of Gaussian 16 at Thu Dec  7 03:59:33 2017.

 -----------------------------------------------------------------
 #P Geom=AllCheck Guess=TCheck SCRF=Check GenChk RB3LYP/6-31G Freq
 -----------------------------------------------------------------

 Structure from the checkpoint file:  "/scratch/dhuang9_oac_pyrrole_freeze_rerun_b3lyp_631g/Gau-159345.chk"
 ---------
 TS Freeze
 ---------
 Charge =  0 Multiplicity = 1

                         Standard orientation:
 ---------------------------------------------------------------------
 Center     Atomic      Atomic             Coordinates (Angstroms)
 Number     Number       Type             X           Y           Z
 ---------------------------------------------------------------------
      1          6           0       -1.285668    0.932428   -0.150367
      2          6           0       -0.651097   -0.302053   -0.612608
      3          6           0       -1.550839   -1.484624   -0.468966
      4          6           0       -2.863051   -0.904756    0.130120
      5          6           0       -2.588756    0.557732    0.236978
      6          1           0        0.192862   -0.307248   -1.292552
      7          1           0       -1.728160   -1.956580   -1.445998
      8          1           0       -1.109569   -2.265498    0.163250
      9          1           0       -3.719769   -1.129590   -0.523216
     10          1           0       -3.112266   -1.350638    1.106169
     11          1           0       -3.328658    1.278672    0.564365
     12          8           0       -0.720788    2.098319   -0.095741
     13          6           0        1.960814   -1.283322    0.545655
     14          6           0        1.122693   -0.238823    0.976489
     15          6           0        2.871478   -0.737425   -0.387320
     16          1           0        3.643480   -1.266362   -0.924515
     17          6           0        2.592498    0.633344   -0.486249
     18          1           0        3.035874    1.385539   -1.118554
     19          7           0        1.573026    0.938492    0.371106
     20          1           0        1.908051   -2.310218    0.874322
     21          1           0        0.424618   -0.205245    1.795700
     22          1           0        0.900219    1.736163    0.266828
 ---------------------------------------------------------------------

 SCF Done:  E(RB3LYP) =  -479.364063470     A.U. after    1 cycles

 The electronic state is 1-A.
 Alpha  occ. eigenvalues --  -19.06646 -14.36332 -10.23617 -10.23451 -10.22167
 Alpha  occ. eigenvalues --  -10.22069 -10.20746 -10.20317 -10.19990 -10.18846
 Alpha  occ. eigenvalues --  -10.18325  -0.98442  -0.96372  -0.85657  -0.77863
 Alpha  occ. eigenvalues --   -0.73590  -0.72081  -0.70431  -0.59373  -0.58265
 Alpha  occ. eigenvalues --   -0.57402  -0.55447  -0.53757  -0.48145  -0.47554
 Alpha  occ. eigenvalues --   -0.44852  -0.42840  -0.41276  -0.40544  -0.40165
 Alpha  occ. eigenvalues --   -0.39002  -0.38965  -0.37626  -0.36991  -0.35786
 Alpha  occ. eigenvalues --   -0.34198  -0.25632  -0.23709  -0.21109  -0.18721
 Alpha virt. eigenvalues --   -0.09917   0.03061   0.06622   0.07719   0.08435
 Alpha virt. eigenvalues --    0.10927   0.12327   0.14110   0.15104   0.15679
 Alpha virt. eigenvalues --    0.15864   0.16429   0.16971   0.18190   0.19452

 Mulliken charges:
               1
     1  C    0.311938
     2  C   -0.080957
     3  C   -0.324694
     4  C   -0.313267
     5  C   -0.103554
     6  H    0.175624
     7  H    0.169163
     8  H    0.170772
     9  H    0.160330
    10  H    0.156021
    11  H    0.147498
    12  O   -0.616900
    13  C   -0.125404
    14  C   -0.013478
    15  C   -0.175886
    16  H    0.134734
    17  C    0.076488
    18  H    0.163689
    19  N   -0.593346
    20  H    0.133551
    21  H    0.168530
    22  H    0.379148
 Sum of Mulliken charges =   0.00000

 Dipole moment (field-independent basis, Debye):
    X=             -0.5409    Y=             -4.4228    Z=             -0.4482  Tot=              4.4783
 Quadrupole moment (field-independent basis, Debye-Ang):
   XX=            -58.7563   YY=            -70.6916   ZZ=            -63.6944
   XY=              5.0772   XZ=             -3.8249   YZ=             -0.1847

  Exact polarizability: 197.776  -5.861 103.604 -14.542  -0.415  67.855
 Approx polarizability: 395.142 -30.992 187.495 -43.484   2.575 109.878

 ******    1 imaginary frequencies (negative Signs) ******

                      1                      2                      3
                      A                      A                      A
 Frequencies --    -89.9015                77.4504                91.5013
 Red. masses --      5.7069                 2.7256                 3.8828
 Frc consts  --      0.0272                 0.0096                 0.0192
 IR Inten    --    142.1202                 1.8612                 6.6860

                      4                      5                      6
                      A                      A                      A
 Frequencies --    123.7469               185.9867               203.9209
 Red. masses --      4.2721                 3.1426                 4.1305
 Frc consts  --      0.0385                 0.0640                 0.1012
 IR Inten    --     15.2412                 0.1805                 9.0986

                      7                      8                      9
                      A                      A                      A
 Frequencies --    214.6409               291.8735               471.3762
 Red. masses --      2.5712                 3.5893                 5.3348
 Frc consts  --      0.0698                 0.1802                 0.6984
 IR Inten    --      5.0306                76.1353                14.8746

                     10                     11                     12
                      A                      A                      A
 Frequencies --    598.4070               618.1043               635.4004
 Red. masses --      3.3709                 3.2271                 3.3620
 Frc consts  --      0.7112                 0.7264                 0.7997
 IR Inten    --     43.1925                28.4135                11.3976

                     13                     14                     15
                      A                      A                      A
 Frequencies --    656.3714               743.7829               771.2968
 Red. masses --      6.5831                 1.3591                 4.6371
 Frc consts  --      1.6710                 0.4430                 1.6253
 IR Inten    --      5.4821                45.1646                 1.8841

                     16                     17                     18
                      A                      A                      A
 Frequencies --    777.0705               790.8377               854.9504
 Red. masses --      1.2260                 1.2064                 1.9077
 Frc consts  --      0.4362                 0.4446                 0.8215
 IR Inten    --     59.9731                90.7439               153.2769

                     19                     20                     21
                      A                      A                      A
 Frequencies --    861.0314               864.0957               911.9658
 Red. masses --      1.3416                 1.3881                 4.0644
 Frc consts  --      0.5860                 0.6106                 1.9916
 IR Inten    --      5.8203                39.8697                10.8888

                     22                     23                     24
                      A                      A                      A
 Frequencies --    914.8031               924.2896               964.6556
 Red. masses --      3.4040                 1.4676                 1.9634
 Frc consts  --      1.6784                 0.7387                 1.0765
 IR Inten    --     19.6225                 0.3272                18.4411

                     25                     26                     27
                      A                      A                      A
 Frequencies --    970.8507              1005.7262              1013.3359
 Red. masses --      1.7431                 1.6519                 1.6621
 Frc consts  --      0.9680                 0.9844                 1.0056
 IR Inten    --      7.3758                37.3548                88.8373

                     28                     29                     30
                      A                      A                      A
 Frequencies --   1042.6035              1081.3845              1085.0362
 Red. masses --      1.8024                 1.4553                 1.3924
 Frc consts  --      1.1543                 1.0027                 0.9658
 IR Inten    --     37.3354                59.6153                23.9553

                     31                     32                     33
                      A                      A                      A
 Frequencies --   1112.3218              1119.2652              1155.8509
 Red. masses --      1.5954                 1.3203                 1.1499
 Frc consts  --      1.1630                 0.9745                 0.9051
 IR Inten    --      8.6255                17.1298                 0.5452

                     34                     35                     36
                      A                      A                      A
 Frequencies --   1185.7501              1211.2998              1238.7532
 Red. masses --      3.9776                 1.1539                 1.5929
 Frc consts  --      3.2950                 0.9975                 1.4402
 IR Inten    --     26.6801                26.5231                35.0835

                     37                     38                     39
                      A                      A                      A
 Frequencies --   1262.2759              1270.1520              1348.1072
 Red. masses --      2.1680                 1.9942                 1.6711
 Frc consts  --      2.0352                 1.8955                 1.7894
 IR Inten    --     28.4779                26.4366                24.5324

                     40                     41                     42
                      A                      A                      A
 Frequencies --   1356.4167              1358.7077              1367.4510
 Red. masses --      1.6910                 1.9567                 3.3232
 Frc consts  --      1.8331                 2.1283                 3.6613
 IR Inten    --     58.9809                25.9433                55.4399

                     43                     44                     45
                      A                      A                      A
 Frequencies --   1425.0695              1460.1106              1502.1108
 Red. masses --      3.7736                 2.3438                 1.0801
 Frc consts  --      4.5152                 2.9440                 1.4358
 IR Inten    --     60.8398                13.0702                10.3177

                     46                     47                     48
                      A                      A                      A
 Frequencies --   1514.8047              1523.2040              1564.8207
 Red. masses --      2.5260                 1.1309                 2.1977
 Frc consts  --      3.4151                 1.5459                 3.1707
 IR Inten    --      6.8683                 1.9677               107.9837

                     49                     50                     51
                      A                      A                      A
 Frequencies --   1641.2288              3006.8575              3014.4456
 Red. masses --      2.7458                 1.0642                 1.0906
 Frc consts  --      4.3578                 5.6687                 5.8391
 IR Inten    --     84.0799                85.1449               215.8988

                     52                     53                     54
                      A                      A                      A
 Frequencies --   3027.6370              3041.1048              3075.7803
 Red. masses --      1.0956                 1.0655                 1.0948
 Frc consts  --      5.9173                 5.8057                 6.1024
 IR Inten    --     16.4992                26.2671                21.6935

                     55                     56                     57
                      A                      A                      A
 Frequencies --   3229.5036              3242.9120              3272.0253
 Red. masses --      1.0934                 1.0925                 1.0899
 Frc consts  --      6.7190                 6.7693                 6.8747
 IR Inten    --      6.6549                 5.7057                 3.3323

                     58                     59                     60
                      A                      A                      A
 Frequencies --   3286.8264              3305.3669              3315.2059
 Red. masses --      1.0954                 1.0987                 1.1054
 Frc consts  --      6.9720                 7.0727                 7.1578
 IR Inten    --      7.2534                 1.9548                 5.6952

 - Thermochemistry -
 -------------------
 Temperature   298.150 Kelvin.  Pressure   1.00000 Atm.
 Atom     1 has atomic number  6 and mass  12.00000

 Molecular mass:   149.08406 amu.
 Principal axes and moments of inertia in atomic units:
                           1         2         3
     Eigenvalues --   833.587582231.280342766.14364
           X            0.99980   0.01716  -0.00986
           Y           -0.01714   0.99985   0.00215
           Z            0.00990  -0.00198   0.99995
 This molecule is an asymmetric top.
 Rotational symmetry number  1.
 Warning -- assumption of classical behavior for rotation
           may cause significant error
 Rotational temperatures (Kelvin)      0.10391     0.03882     0.03131
 Rotational constants (GHZ):           2.16503     0.80884     0.65244
    1 imaginary frequencies ignored.
 Zero-point vibrational energy     479594.0 (Joules/Mol)
                                  114.62573 (Kcal/Mol)
 Warning -- explicit consideration of  10 degrees of freedom as
           vibrations may cause significant error
 Vibrational temperatures:    111.43   131.65   178.04   267.59   293.40
          (Kelvin)            308.82   419.94   678.21   860.97   889.31
                              914.20   944.37  1070.14  1109.72  1118.03
                             1137.84  1230.08  1238.83  1243.24  1312.12
                             1316.20  1329.85  1387.92  1396.84  1447.02
                             1457.96  1500.07  1555.87  1561.13  1600.38
                             1610.37  1663.01  1706.03  1742.79  1782.29
                             1816.13  1827.47  1939.63  1951.58  1954.88
                             1967.46  2050.36  2100.77  2161.20  2179.47
                             2191.55  2251.43  2361.36  4326.20  4337.11
                             4356.09  4375.47  4425.36  4646.54  4665.83
                             4707.71  4729.01  4755.69  4769.84

 Zero-point correction=                           0.182668 (Hartree/Particle)
 Thermal correction to Energy=                    0.191794
 Thermal correction to Enthalpy=                  0.192739
 Thermal correction to Gibbs Free Energy=         0.147754
 Sum of electronic and zero-point Energies=           -479.181396
 Sum of electronic and thermal Energies=              -479.172269
 Sum of electronic and thermal Enthalpies=            -479.171325
 Sum of electronic and thermal Free Energies=         -479.216309

                     E (Thermal)             CV                S
                      KCal/Mol        Cal/Mol-Kelvin    Cal/Mol-Kelvin
 Total                  120.353             35.300             94.677
 Electronic               0.000              0.000              0.000
 Translational            0.889              2.981             40.908
 Rotational               0.889              2.981             30.021
 Vibrational            118.575             29.339             23.748
 Vibration     1          0.599              1.964              3.954
 Vibration     2          0.602              1.955              3.628
 Vibration     3          0.610              1.929              3.041
 Vibration     4          0.632              1.859              2.267
 Vibration     5          0.640              1.834              2.097
 Vibration     6          0.645              1.819              2.004
 Vibration     7          0.687              1.689              1.463
 Vibration     8          0.828              1.314              0.734
 Vibration     9          0.956              1.035              0.452
 Vibration    10          0.978              0.994              0.420

                           ! Non-Optimized Parameters !
 Normal termination of Gaussian 16 at Thu Dec  7 04:02:36 2017.
