 Gaussian 16, Revision A.03,
 Gaussian 16:  ES64L-G16RevA.03 25-Dec-2016

 -------------------------------------
 #p pddg opt=modredundant freq=noraman
 -------------------------------------

 ---------
 TS Freeze
 ---------
 Symbolic Z-matrix:
 Charge =  0 Multiplicity = 1

 SCF Done:  E(RPDDG) =  0.113010342010     A.U. after   15 cycles
 SCF Done:  E(RPDDG) =  0.904302696154E-01 A.U. after   14 cycles
 SCF Done:  E(RPDDG) =  0.881820393096E-01 A.U. after   14 cycles
 SCF Done:  E(RPDDG) =  0.878385818413E-01 A.U. after   14 cycles
 SCF Done:  E(RPDDG) =  0.875577844038E-01 A.U. after   14 cycles
 SCF Done:  E(RPDDG) =  0.872752087217E-01 A.U. after   15 cycles
 SCF Done:  E(RPDDG) =  0.870512994101E-01 A.U. after   14 cycles
 SCF Done:  E(RPDDG) =  0.869186953383E-01 A.U. after   13 cycles
 SCF Done:  E(RPDDG) =  0.868651321647E-01 A.U. after   14 cycles
 SCF Done:  E(RPDDG) =  0.868577406702E-01 A.U. after   13 cycles
 SCF Done:  E(RPDDG) =  0.852789401937E-01 A.U. after   13 cycles
 SCF Done:  E(RPDDG) =  0.852170749936E-01 A.U. after   13 cycles
 SCF Done:  E(RPDDG) =  0.851757016382E-01 A.U. after   13 cycles
 SCF Done:  E(RPDDG) =  0.851692921452E-01 A.U. after   13 cycles
 SCF Done:  E(RPDDG) =  0.851634975464E-01 A.U. after   13 cycles
 SCF Done:  E(RPDDG) =  0.851608899897E-01 A.U. after   12 cycles
 SCF Done:  E(RPDDG) =  0.851602918024E-01 A.U. after   11 cycles
 SCF Done:  E(RPDDG) =  0.851602022888E-01 A.U. after   11 cycles
 SCF Done:  E(RPDDG) =  0.851601442718E-01 A.U. after   10 cycles
 Optimization completed.
    -- Stationary point found.
 Normal termination of Gaussian 16 at Thu Dec  7 17:42:09 2017.

 --------------------------------------------------------------
 #P Geom=AllCheck Guess=TCheck SCRF=Check GenChk RPDDG/ZDO Freq
 --------------------------------------------------------------

 Structure from the checkpoint file:  "/scratch/dhuang9_oac_methyl_pyrrole_freeze/Gau-127938.chk"
 ---------
 TS Freeze
 ---------
 Charge =  0 Multiplicity = 1

                         Standard orientation:
 ---------------------------------------------------------------------
 Center     Atomic      Atomic             Coordinates (Angstroms)
 Number     Number       Type             X           Y           Z
 ---------------------------------------------------------------------
      1          6           0       -1.548937    1.007396   -0.347136
      2          6           0       -2.793218    0.827893    0.332943
      3          6           0       -3.201896   -0.585216    0.404837
      4          6           0       -2.075609   -1.349811   -0.306361
      5          6           0       -1.134890   -0.310972   -0.746524
      6          1           0       -3.394128    1.637754    0.762755
      7          1           0       -3.340679   -0.913837    1.457844
      8          1           0       -4.191622   -0.746832   -0.075398
      9          1           0       -1.552408   -2.073475    0.361910
     10          1           0       -2.440266   -1.963178   -1.158847
     11          1           0       -0.217356   -0.542908   -1.309750
     12          8           0       -0.942590    2.076156   -0.552238
     13          6           0        1.969572   -1.736576   -0.472486
     14          6           0        2.586667   -0.514666   -0.748661
     15          6           0        1.174840   -1.570394    0.695354
     16          1           0        0.584186   -2.348783    1.184131
     17          6           0        1.330058   -0.254943    1.139675
     18          1           0        0.866947    0.238056    2.004000
     19          6           0        2.491710    1.796297    0.258785
     20          1           0        3.296009    2.049123   -0.448395
     21          1           0        1.605223    2.392167   -0.026336
     22          1           0        2.805392    2.142758    1.254773
     23          7           0        2.197154    0.368486    0.252039
     24          1           0        2.086596   -2.660027   -1.043169
     25          1           0        3.262965   -0.253510   -1.572453
 ---------------------------------------------------------------------

 SCF Done:  E(RPDDG) =  0.851601442707E-01 A.U. after    2 cycles

 The electronic state is 1-A.
 Alpha  occ. eigenvalues --   -1.51101  -1.44506  -1.27329  -1.17340  -1.05241
 Alpha  occ. eigenvalues --   -1.01348  -0.98431  -0.91327  -0.76663  -0.73507
 Alpha  occ. eigenvalues --   -0.71082  -0.69559  -0.66792  -0.64507  -0.60913
 Alpha  occ. eigenvalues --   -0.55900  -0.54574  -0.54330  -0.53543  -0.52451
 Alpha  occ. eigenvalues --   -0.51382  -0.50507  -0.49981  -0.49423  -0.48816
 Alpha  occ. eigenvalues --   -0.48377  -0.47672  -0.46171  -0.35486  -0.33161
 Alpha  occ. eigenvalues --   -0.32783  -0.29542
 Alpha virt. eigenvalues --   -0.07264   0.03968   0.06767   0.07011   0.08481
 Alpha virt. eigenvalues --    0.08623   0.09063   0.11650   0.11958   0.12010
 Alpha virt. eigenvalues --    0.12649   0.12794   0.13266   0.14046   0.14225

 Mulliken charges:
               1
     1  C    0.211288
     2  C   -0.167826
     3  C   -0.177780
     4  C   -0.204315
     5  C   -0.076623
     6  H    0.165579
     7  H    0.128872
     8  H    0.129859
     9  H    0.146752
    10  H    0.136452
    11  H    0.184094
    12  O   -0.483862
    13  C   -0.226855
    14  C   -0.366058
    15  C   -0.248139
    16  H    0.164024
    17  C   -0.354536
    18  H    0.195706
    19  C   -0.324460
    20  H    0.113584
    21  H    0.148943
    22  H    0.110080
    23  N    0.434126
    24  H    0.168134
    25  H    0.192962
 Sum of Mulliken charges =   0.00000

 Dipole moment (field-independent basis, Debye):
    X=             -1.6848    Y=             -2.7806    Z=              0.9290  Tot=              3.3814
 N-N= 3.830402034035D+02 E-N=-6.163271320380D+02  KE=-1.053080549783D+02
  Exact polarizability: 110.137   0.606 117.890 -44.279  16.152  76.397
 Approx polarizability:  84.914   0.152 103.734 -40.132  15.491  64.439
 Leave Link  601 at Thu Dec  7 17:42:22 2017, MaxMem=   536870912 cpu:               1.2 elap:               0.4
 (Enter /n/sw/g16_nehalem/g16/l701.exe)
 ... and contract with generalized density number  0.
 Compute integral second derivatives.
 Leave Link  701 at Thu Dec  7 17:42:22 2017, MaxMem=   536870912 cpu:               1.6 elap:               0.8
 (Enter /n/sw/g16_nehalem/g16/l702.exe)
 L702 exits ... SP integral derivatives will be done elsewhere.

                      1                      2                      3
                      A                      A                      A
 Frequencies --     26.2278                50.9603                60.6531
 Red. masses --      4.0175                 4.0679                 4.3393
 Frc consts  --      0.0016                 0.0062                 0.0094
 IR Inten    --      8.1255                 0.4308                 3.4032

                      4                      5                      6
                      A                      A                      A
 Frequencies --     74.8380                93.2033               117.1083
 Red. masses --      3.4200                 1.0413                 4.9255
 Frc consts  --      0.0113                 0.0053                 0.0398
 IR Inten    --      0.3558                 0.1757                 4.7232

                      7                      8                      9
                      A                      A                      A
 Frequencies --    163.9225               184.6918               226.3944
 Red. masses --      2.4947                 2.3260                 3.5435
 Frc consts  --      0.0395                 0.0467                 0.1070
 IR Inten    --      2.1204                13.8186                 1.7387

                     10                     11                     12
                      A                      A                      A
 Frequencies --    275.6193               365.2851               465.0051
 Red. masses --      2.7802                 2.5202                 5.4991
 Frc consts  --      0.1244                 0.1981                 0.7006
 IR Inten    --      1.4608                 0.1352                 0.3194

                     13                     14                     15
                      A                      A                      A
 Frequencies --    480.9177               535.4545               545.9274
 Red. masses --      2.8751                 2.5447                 2.1091
 Frc consts  --      0.3918                 0.4299                 0.3703
 IR Inten    --      3.5019                 5.0963                 2.8814

                     16                     17                     18
                      A                      A                      A
 Frequencies --    652.8226               685.7881               704.4308
 Red. masses --      7.1075                 3.9507                 1.2734
 Frc consts  --      1.7847                 1.0947                 0.3723
 IR Inten    --      1.6815                 1.8266               115.5097

                     19                     20                     21
                      A                      A                      A
 Frequencies --    752.9876               771.6623               782.8412
 Red. masses --      4.0339                 1.1939                 1.2329
 Frc consts  --      1.3476                 0.4188                 0.4452
 IR Inten    --      0.1797               129.8531                32.2333

                     22                     23                     24
                      A                      A                      A
 Frequencies --    803.8795               864.2624               874.2712
 Red. masses --      1.3201                 1.4961                 4.5755
 Frc consts  --      0.5026                 0.6584                 2.0605
 IR Inten    --     63.5680                 2.1616                 0.3600

                     25                     26                     27
                      A                      A                      A
 Frequencies --    882.3073               917.8196               969.6662
 Red. masses --      1.7472                 1.5158                 1.2455
 Frc consts  --      0.8014                 0.7523                 0.6900
 IR Inten    --     53.3857                 8.3497                 5.2665

                     28                     29                     30
                      A                      A                      A
 Frequencies --    985.8904               986.4193               990.2597
 Red. masses --      1.3877                 1.3494                 1.2931
 Frc consts  --      0.7947                 0.7736                 0.7471
 IR Inten    --     13.1530                 3.4559                10.4254

                     31                     32                     33
                      A                      A                      A
 Frequencies --    998.2797              1011.7972              1027.7151
 Red. masses --      1.4109                 1.3196                 1.0612
 Frc consts  --      0.8284                 0.7960                 0.6604
 IR Inten    --     11.3439                 1.5357                 3.4692

                     34                     35                     36
                      A                      A                      A
 Frequencies --   1042.1264              1053.2354              1056.5245
 Red. masses --      1.2569                 1.0664                 1.0896
 Frc consts  --      0.8043                 0.6970                 0.7166
 IR Inten    --      4.6280                 9.6303                13.1369

                     37                     38                     39
                      A                      A                      A
 Frequencies --   1064.7831              1113.0575              1129.9395
 Red. masses --      1.2660                 1.8815                 2.2896
 Frc consts  --      0.8457                 1.3734                 1.7224
 IR Inten    --      6.6858                 0.6378                 2.3514

                     40                     41                     42
                      A                      A                      A
 Frequencies --   1175.9601              1191.7349              1247.2374
 Red. masses --      1.2975                 1.2874                 1.1575
 Frc consts  --      1.0572                 1.0773                 1.0609
 IR Inten    --      2.1101                 0.5582                32.5195

                     43                     44                     45
                      A                      A                      A
 Frequencies --   1253.8296              1262.5018              1276.6541
 Red. masses --      1.0836                 1.0894                 1.5006
 Frc consts  --      1.0037                 1.0231                 1.4410
 IR Inten    --     10.8641                13.2821                28.4409

                     46                     47                     48
                      A                      A                      A
 Frequencies --   1289.1795              1359.1629              1409.2732
 Red. masses --      1.5294                 2.3234                 4.9423
 Frc consts  --      1.4976                 2.5288                 5.7832
 IR Inten    --     47.8730                 4.9013               131.6665

                     49                     50                     51
                      A                      A                      A
 Frequencies --   1436.2413              1466.2004              1488.9502
 Red. masses --      6.6332                 6.3136                 8.4299
 Frc consts  --      8.0618                 7.9968                11.0112
 IR Inten    --     35.9161                 8.9540               265.8674

                     52                     53                     54
                      A                      A                      A
 Frequencies --   1501.7662              1519.1663              1587.6670
 Red. masses --      7.8505                 6.2350                 6.1957
 Frc consts  --     10.4316                 8.4780                 9.2015
 IR Inten    --     22.9399                 4.3071                 0.6871

                     55                     56                     57
                      A                      A                      A
 Frequencies --   1645.8338              1903.3255              2860.1421
 Red. masses --      6.7042                11.8467                 1.0965
 Frc consts  --     10.6996                25.2857                 5.2846
 IR Inten    --      0.1332               705.7801                18.4462

                     58                     59                     60
                      A                      A                      A
 Frequencies --   2879.0478              2895.9927              2903.0125
 Red. masses --      1.0966                 1.0696                 1.0619
 Frc consts  --      5.3556                 5.2851                 5.2726
 IR Inten    --     35.5584                46.7292                50.1184

                     61                     62                     63
                      A                      A                      A
 Frequencies --   2925.4216              2959.8670              2970.1185
 Red. masses --      1.0741                 1.0659                 1.1080
 Frc consts  --      5.4158                 5.5020                 5.7588
 IR Inten    --     43.1351                17.4145                15.0398

                     64                     65                     66
                      A                      A                      A
 Frequencies --   2990.3979              3015.7051              3022.2798
 Red. masses --      1.0931                 1.0991                 1.1039
 Frc consts  --      5.7591                 5.8895                 5.9409
 IR Inten    --    122.4421               157.7044                37.1279

                     67                     68                     69
                      A                      A                      A
 Frequencies --   3033.5518              3063.4375              3075.1105
 Red. masses --      1.0935                 1.0960                 1.1084
 Frc consts  --      5.9291                 6.0600                 6.1752
 IR Inten    --     80.9571                32.8736                61.8567

 - Thermochemistry -
 -------------------
 Temperature   298.150 Kelvin.  Pressure   1.00000 Atm.
 Atom     1 has atomic number  6 and mass  12.00000

 Molecular mass:   163.09971 amu.
 Principal axes and moments of inertia in atomic units:
                           1         2         3
     Eigenvalues --  1188.344382812.447263525.76048
           X            0.99917   0.03925  -0.01073
           Y           -0.03900   0.99898   0.02259
           Z            0.01161  -0.02215   0.99969
 This molecule is an asymmetric top.
 Rotational symmetry number  1.
 Warning -- assumption of classical behavior for rotation
           may cause significant error
 Rotational temperatures (Kelvin)      0.07289     0.03080     0.02457
 Rotational constants (GHZ):           1.51870     0.64170     0.51187
 Zero-point vibrational energy     528735.9 (Joules/Mol)
                                  126.37092 (Kcal/Mol)
 Warning -- explicit consideration of  15 degrees of freedom as
           vibrations may cause significant error
 Vibrational temperatures:     37.74    73.32    87.27   107.68   134.10
          (Kelvin)            168.49   235.85   265.73   325.73   396.55
                              525.56   669.04   691.93   770.40   785.47
                              939.27   986.70  1013.52  1083.38  1110.25
                             1126.33  1156.60  1243.48  1257.88  1269.44
                             1320.54  1395.13  1418.48  1419.24  1424.76
                             1436.30  1455.75  1478.65  1499.39  1515.37
                             1520.10  1531.99  1601.44  1625.73  1691.94
                             1714.64  1794.50  1803.98  1816.46  1836.82
                             1854.84  1955.53  2027.63  2066.43  2109.54
                             2142.27  2160.71  2185.74  2284.30  2367.99
                             2738.46  4115.11  4142.31  4166.69  4176.79
                             4209.03  4258.59  4273.34  4302.52  4338.93
                             4348.39  4364.60  4407.60  4424.40

 Zero-point correction=                           0.201385 (Hartree/Particle)
 Thermal correction to Energy=                    0.213896
 Thermal correction to Enthalpy=                  0.214840
 Thermal correction to Gibbs Free Energy=         0.160687
 Sum of electronic and zero-point Energies=              0.286545
 Sum of electronic and thermal Energies=                 0.299056
 Sum of electronic and thermal Enthalpies=               0.300000
 Sum of electronic and thermal Free Energies=            0.245848

                     E (Thermal)             CV                S
                      KCal/Mol        Cal/Mol-Kelvin    Cal/Mol-Kelvin
 Total                  134.222             45.435            113.974
 Electronic               0.000              0.000              0.000
 Translational            0.889              2.981             41.176
 Rotational               0.889              2.981             30.845
 Vibrational            132.444             39.473             41.954
 Vibration     1          0.593              1.985              6.096
 Vibration     2          0.595              1.977              4.780
 Vibration     3          0.597              1.973              4.436
 Vibration     4          0.599              1.966              4.022
 Vibration     5          0.602              1.954              3.592
 Vibration     6          0.608              1.935              3.148
 Vibration     7          0.623              1.887              2.504
 Vibration     8          0.631              1.861              2.280
 Vibration     9          0.650              1.801              1.907
 Vibration    10          0.677              1.718              1.561
 Vibration    11          0.739              1.544              1.100
 Vibration    12          0.822              1.328              0.752
 Vibration    13          0.837              1.292              0.708
 Vibration    14          0.890              1.172              0.575
 Vibration    15          0.901              1.149              0.553

                           ! Non-Optimized Parameters !
 Normal termination of Gaussian 16 at Thu Dec  7 17:42:31 2017.
