 Gaussian 16, Revision A.03,
 Gaussian 16:  ES64L-G16RevA.03 25-Dec-2016

 ----------------------------------------------------------------------
 #p b3lyp empiricaldispersion=gd3bj midix scrf=(pcm,solvent=perfluorobe
 nzene) opt=(ts,noeigentest,calcfc) freq=noraman
 ----------------------------------------------------------------------

 ------
 TS Opt
 ------
 Symbolic Z-matrix:
 Charge =  0 Multiplicity = 1

 SCF Done:  E(RB3LYP) =  -515.779819972     A.U. after   18 cycles
 SCF Done:  E(RB3LYP) =  -515.787000486     A.U. after   14 cycles
 SCF Done:  E(RB3LYP) =  -515.788269381     A.U. after   14 cycles
 SCF Done:  E(RB3LYP) =  -515.788234023     A.U. after   12 cycles
 SCF Done:  E(RB3LYP) =  -515.788030643     A.U. after   14 cycles
 SCF Done:  E(RB3LYP) =  -515.788435675     A.U. after   14 cycles
 SCF Done:  E(RB3LYP) =  -515.789269916     A.U. after   14 cycles
 SCF Done:  E(RB3LYP) =  -515.789592606     A.U. after   15 cycles
 SCF Done:  E(RB3LYP) =  -515.788234442     A.U. after   15 cycles
 SCF Done:  E(RB3LYP) =  -515.788410540     A.U. after   13 cycles
 SCF Done:  E(RB3LYP) =  -515.789881748     A.U. after   14 cycles
 SCF Done:  E(RB3LYP) =  -515.790796404     A.U. after   13 cycles
 SCF Done:  E(RB3LYP) =  -515.790536962     A.U. after   13 cycles
 SCF Done:  E(RB3LYP) =  -515.790928227     A.U. after   12 cycles
 SCF Done:  E(RB3LYP) =  -515.790935300     A.U. after   12 cycles
 SCF Done:  E(RB3LYP) =  -515.790968115     A.U. after   12 cycles
 SCF Done:  E(RB3LYP) =  -515.790967888     A.U. after   10 cycles
 SCF Done:  E(RB3LYP) =  -515.790967386     A.U. after   10 cycles
 SCF Done:  E(RB3LYP) =  -515.790967314     A.U. after   10 cycles
 Optimization completed.
    -- Stationary point found.
 Normal termination of Gaussian 16 at Fri Dec  8 01:33:39 2017.

 -----------------------------------------------------------------
 #P Geom=AllCheck Guess=TCheck SCRF=Check GenChk RB3LYP/MIDIx Freq
 -----------------------------------------------------------------

 Structure from the checkpoint file:  "/scratch/dhuang9_oac_methyl_pyrrole_ts_midix_pfb/Gau-135474.chk"
 ------
 TS Opt
 ------
 Charge =  0 Multiplicity = 1

                         Standard orientation:
 ---------------------------------------------------------------------
 Center     Atomic      Atomic             Coordinates (Angstroms)
 Number     Number       Type             X           Y           Z
 ---------------------------------------------------------------------
      1          6           0        1.215457    1.068643    0.143821
      2          6           0        2.570355    1.010612   -0.228166
      3          6           0        3.198408   -0.344846   -0.111362
      4          6           0        2.089752   -1.203434    0.589033
      5          6           0        0.881606   -0.310163    0.593291
      6          1           0        3.121726    1.891685   -0.543824
      7          1           0        3.474526   -0.766697   -1.095281
      8          1           0        4.121871   -0.346041    0.491411
      9          1           0        1.916512   -2.166269    0.089957
     10          1           0        2.389189   -1.435226    1.624190
     11          1           0        0.089862   -0.444165    1.325361
     12          8           0        0.378123    2.024238    0.117682
     13          6           0       -1.302952   -1.920195   -0.108918
     14          6           0       -2.302196   -1.150807    0.423966
     15          6           0       -0.496428   -1.055923   -0.954726
     16          1           0        0.246761   -1.383894   -1.668873
     17          6           0       -1.167055    0.189621   -1.001904
     18          1           0       -0.889293    1.111737   -1.483269
     19          6           0       -2.839668    1.351243    0.394851
     20          1           0       -3.496330    1.080009    1.227049
     21          1           0       -2.020462    2.001019    0.729687
     22          1           0       -3.424408    1.849788   -0.388149
     23          7           0       -2.207800    0.135199   -0.133696
     24          1           0       -1.107260   -2.962306    0.103517
     25          1           0       -3.076754   -1.378446    1.143333
 ---------------------------------------------------------------------

 SCF Done:  E(RB3LYP) =  -515.790967314     A.U. after    1 cycles

 The electronic state is 1-A.
 Alpha  occ. eigenvalues --  -18.93046 -14.31237 -10.16180 -10.16160 -10.15684
 Alpha  occ. eigenvalues --  -10.15494 -10.14751 -10.13698 -10.13005 -10.12359
 Alpha  occ. eigenvalues --  -10.12334 -10.10269  -1.00456  -0.94998  -0.84090
 Alpha  occ. eigenvalues --   -0.81774  -0.74420  -0.71095  -0.69546  -0.68428
 Alpha  occ. eigenvalues --   -0.59126  -0.57150  -0.56285  -0.53793  -0.51390
 Alpha  occ. eigenvalues --   -0.46792  -0.46272  -0.45593  -0.44786  -0.43170
 Alpha  occ. eigenvalues --   -0.41999  -0.39565  -0.39393  -0.38592  -0.38242
 Alpha  occ. eigenvalues --   -0.37060  -0.35879  -0.35024  -0.34466  -0.32579
 Alpha  occ. eigenvalues --   -0.25833  -0.23127  -0.18831  -0.16475
 Alpha virt. eigenvalues --   -0.07025   0.02816   0.06912   0.08189   0.09660
 Alpha virt. eigenvalues --    0.10476   0.11519   0.13348   0.14064   0.15024
 Alpha virt. eigenvalues --    0.15885   0.16207   0.17130   0.17410   0.17845

 Mulliken charges:
               1
     1  C    0.379399
     2  C   -0.167572
     3  C   -0.350102
     4  C   -0.366557
     5  C   -0.112332
     6  H    0.157242
     7  H    0.172837
     8  H    0.176065
     9  H    0.183741
    10  H    0.193489
    11  H    0.194145
    12  O   -0.671663
    13  C   -0.197059
    14  C    0.108251
    15  C   -0.331739
    16  H    0.192620
    17  C    0.224751
    18  H    0.215531
    19  C   -0.232838
    20  H    0.180750
    21  H    0.208970
    22  H    0.187360
    23  N   -0.707981
    24  H    0.177284
    25  H    0.185409
 Sum of Mulliken charges =   0.00000

 Dipole moment (field-independent basis, Debye):
    X=             -2.1523    Y=             -3.2701    Z=              0.6371  Tot=              3.9664
 Quadrupole moment (field-independent basis, Debye-Ang):
   XX=            -61.6073   YY=            -76.1007   ZZ=            -70.2486
   XY=             -6.1667   XZ=             -3.5050   YZ=             -2.3984

  Exact polarizability: 214.225  14.305 128.570  -8.325  -6.176  84.491
 Approx polarizability: 337.011  44.274 210.456 -17.677 -11.701 125.831

 ******    1 imaginary frequencies (negative Signs) ******

                      1                      2                      3
                      A                      A                      A
 Frequencies --   -180.7943                67.5082                72.9310
 Red. masses --      7.3470                 3.7595                 2.8259
 Frc consts  --      0.1415                 0.0101                 0.0089
 IR Inten    --    247.6822                 8.7699                 1.2938

                      4                      5                      6
                      A                      A                      A
 Frequencies --    117.2035               159.5704               186.5475
 Red. masses --      3.7472                 3.0098                 2.9942
 Frc consts  --      0.0303                 0.0452                 0.0614
 IR Inten    --      2.1150                24.8816                31.0957

                      7                      8                      9
                      A                      A                      A
 Frequencies --    196.9295               221.3711               255.5734
 Red. masses --      1.3150                 2.4584                 3.0815
 Frc consts  --      0.0300                 0.0710                 0.1186
 IR Inten    --      3.6718                 8.5722                20.7621

                     10                     11                     12
                      A                      A                      A
 Frequencies --    295.8543               375.9738               458.3920
 Red. masses --      3.1167                 2.6726                 5.1771
 Frc consts  --      0.1607                 0.2226                 0.6409
 IR Inten    --     75.0666                 2.2267                18.9041

                     13                     14                     15
                      A                      A                      A
 Frequencies --    599.9771               615.2662               635.7137
 Red. masses --      2.0491                 3.1990                 2.7945
 Frc consts  --      0.4346                 0.7135                 0.6654
 IR Inten    --     91.7854                 0.9964                45.3801

                     16                     17                     18
                      A                      A                      A
 Frequencies --    650.8497               681.2315               719.5974
 Red. masses --      5.7706                 4.2386                 1.6635
 Frc consts  --      1.4402                 1.1589                 0.5075
 IR Inten    --      8.2502                 8.3737                 4.6187

                     19                     20                     21
                      A                      A                      A
 Frequencies --    733.1597               758.6967               782.0913
 Red. masses --      2.0700                 1.3814                 2.2944
 Frc consts  --      0.6556                 0.4685                 0.8269
 IR Inten    --     30.0311                77.4421                42.6285

                     22                     23                     24
                      A                      A                      A
 Frequencies --    849.2125               875.6801               885.7123
 Red. masses --      1.4186                 2.4798                 1.4833
 Frc consts  --      0.6028                 1.1203                 0.6856
 IR Inten    --     12.2713               116.4749                 7.3009

                     25                     26                     27
                      A                      A                      A
 Frequencies --    911.4616               928.5758               941.8831
 Red. masses --      2.2842                 2.2958                 2.3295
 Frc consts  --      1.1181                 1.1663                 1.2176
 IR Inten    --     63.9411                37.1714                 8.7539

                     28                     29                     30
                      A                      A                      A
 Frequencies --    977.9836               999.3791              1018.3488
 Red. masses --      1.9599                 1.9641                 1.4487
 Frc consts  --      1.1045                 1.1558                 0.8852
 IR Inten    --     12.6517                15.6948                 2.5911

                     31                     32                     33
                      A                      A                      A
 Frequencies --   1045.6344              1052.0185              1073.5814
 Red. masses --      1.8574                 2.8974                 1.6121
 Frc consts  --      1.1965                 1.8893                 1.0948
 IR Inten    --     45.1195                 0.5112                 5.8706

                     34                     35                     36
                      A                      A                      A
 Frequencies --   1091.0395              1116.0630              1137.6066
 Red. masses --      1.6700                 1.2314                 1.2827
 Frc consts  --      1.1712                 0.9037                 0.9780
 IR Inten    --      7.4530                24.4121                20.2491

                     37                     38                     39
                      A                      A                      A
 Frequencies --   1156.8929              1162.8025              1213.5029
 Red. masses --      1.2826                 1.1636                 1.3449
 Frc consts  --      1.0114                 0.9270                 1.1669
 IR Inten    --      9.4040                 3.3764                34.3744

                     40                     41                     42
                      A                      A                      A
 Frequencies --   1228.9903              1243.1276              1296.9159
 Red. masses --      2.1381                 1.3692                 4.1980
 Frc consts  --      1.9027                 1.2467                 4.1602
 IR Inten    --     33.4623                 0.9770                34.3710

                     43                     44                     45
                      A                      A                      A
 Frequencies --   1314.3467              1326.0539              1347.0669
 Red. masses --      2.1789                 1.2969                 1.4708
 Frc consts  --      2.2177                 1.3436                 1.5724
 IR Inten    --      2.0447                 4.6044                52.9316

                     46                     47                     48
                      A                      A                      A
 Frequencies --   1366.0083              1373.0721              1409.9802
 Red. masses --      2.0565                 3.1860                 3.7899
 Frc consts  --      2.2609                 3.5390                 4.4392
 IR Inten    --     82.8007                87.1781                49.4943

                     49                     50                     51
                      A                      A                      A
 Frequencies --   1456.2566              1500.9293              1520.5997
 Red. masses --      1.3233                 1.0738                 2.2911
 Frc consts  --      1.6534                 1.4253                 3.1213
 IR Inten    --     22.7302                16.4726                51.6156

                     52                     53                     54
                      A                      A                      A
 Frequencies --   1520.6576              1525.1323              1562.0574
 Red. masses --      1.1067                 1.1030                 2.6530
 Frc consts  --      1.5078                 1.5116                 3.8141
 IR Inten    --      3.6712                22.2908                27.7017

                     55                     56                     57
                      A                      A                      A
 Frequencies --   1574.1691              1638.0801              2966.4246
 Red. masses --      1.1240                 6.6332                 1.0711
 Frc consts  --      1.6410                10.4868                 5.5531
 IR Inten    --     21.0226               267.7959                66.0502

                     58                     59                     60
                      A                      A                      A
 Frequencies --   3000.6439              3017.7084              3032.5198
 Red. masses --      1.0837                 1.0689                 1.0316
 Frc consts  --      5.7490                 5.7350                 5.5894
 IR Inten    --     40.4674                25.7618                55.9012

                     61                     62                     63
                      A                      A                      A
 Frequencies --   3064.9457              3104.7778              3142.5008
 Red. masses --      1.0908                 1.1047                 1.1026
 Frc consts  --      6.0371                 6.2739                 6.4153
 IR Inten    --     22.7474                 8.4912                 6.8007

                     64                     65                     66
                      A                      A                      A
 Frequencies --   3195.7950              3209.5667              3252.9130
 Red. masses --      1.0910                 1.0914                 1.0906
 Frc consts  --      6.5650                 6.6241                 6.7991
 IR Inten    --     11.1267                15.5652                 0.5706

                     67                     68                     69
                      A                      A                      A
 Frequencies --   3260.7057              3278.9891              3320.7822
 Red. masses --      1.0923                 1.1063                 1.1000
 Frc consts  --      6.8427                 7.0078                 7.1471
 IR Inten    --      1.0607                 3.8102                13.4068

 - Thermochemistry -
 -------------------
 Temperature   298.150 Kelvin.  Pressure   1.00000 Atm.
 Atom     1 has atomic number  6 and mass  12.00000

 Molecular mass:   163.09971 amu.
 Principal axes and moments of inertia in atomic units:
                           1         2         3
     Eigenvalues --  1045.136802473.799483149.94487
           X            0.99935  -0.03442  -0.01057
           Y            0.03428   0.99933  -0.01312
           Z            0.01101   0.01275   0.99986
 This molecule is an asymmetric top.
 Rotational symmetry number  1.
 Warning -- assumption of classical behavior for rotation
           may cause significant error
 Rotational temperatures (Kelvin)      0.08287     0.03501     0.02750
 Rotational constants (GHZ):           1.72680     0.72954     0.57294
    1 imaginary frequencies ignored.
 Zero-point vibrational energy     550722.0 (Joules/Mol)
                                  131.62572 (Kcal/Mol)
 Warning -- explicit consideration of  13 degrees of freedom as
           vibrations may cause significant error
 Vibrational temperatures:     97.13   104.93   168.63   229.59   268.40
          (Kelvin)            283.34   318.50   367.71   425.67   540.94
                              659.52   863.23   885.23   914.65   936.43
                              980.14  1035.34  1054.85  1091.60  1125.25
                             1221.83  1259.91  1274.34  1311.39  1336.01
                             1355.16  1407.10  1437.88  1465.18  1504.43
                             1513.62  1544.64  1569.76  1605.77  1636.76
                             1664.51  1673.01  1745.96  1768.24  1788.58
                             1865.97  1891.05  1907.90  1938.13  1965.38
                             1975.54  2028.65  2095.23  2159.50  2187.80
                             2187.89  2194.33  2247.45  2264.88  2356.83
                             4268.02  4317.26  4341.81  4363.12  4409.77
                             4467.08  4521.36  4598.04  4617.85  4680.22
                             4691.43  4717.73  4777.86

 Zero-point correction=                           0.209759 (Hartree/Particle)
 Thermal correction to Energy=                    0.220547
 Thermal correction to Enthalpy=                  0.221491
 Thermal correction to Gibbs Free Energy=         0.173054
 Sum of electronic and zero-point Energies=           -515.581208
 Sum of electronic and thermal Energies=              -515.570421
 Sum of electronic and thermal Enthalpies=            -515.569476
 Sum of electronic and thermal Free Energies=         -515.617914

                     E (Thermal)             CV                S
                      KCal/Mol        Cal/Mol-Kelvin    Cal/Mol-Kelvin
 Total                  138.395             41.645            101.945
 Electronic               0.000              0.000              0.000
 Translational            0.889              2.981             41.176
 Rotational               0.889              2.981             30.477
 Vibrational            136.618             35.683             30.291
 Vibration     1          0.598              1.970              4.225
 Vibration     2          0.599              1.967              4.073
 Vibration     3          0.608              1.935              3.146
 Vibration     4          0.621              1.892              2.555
 Vibration     5          0.632              1.858              2.262
 Vibration     6          0.636              1.844              2.162
 Vibration     7          0.648              1.809              1.948
 Vibration     8          0.666              1.753              1.692
 Vibration     9          0.690              1.681              1.440
 Vibration    10          0.747              1.521              1.055
 Vibration    11          0.816              1.342              0.771
 Vibration    12          0.958              1.032              0.450
 Vibration    13          0.975              1.000              0.424

                           ! Non-Optimized Parameters !

 1\1\GINC-HOLY7C01206\Freq\RB3LYP\MIDIx\C10H13N1O1\ROOT\08-Dec-2017\0\\
 #P Geom=AllCheck Guess=TCheck SCRF=Check GenChk RB3LYP/MIDIx Freq\\TS
 Opt\\0,1\C,-1.1036828995,1.0411844356,-0.1167053797\C,-2.4602906927,1.
 0198512204,0.2529579988\C,-3.1158472902,-0.3248335038,0.1667606986\C,-
 2.0235790607,-1.2224406926,-0.5100675649\C,-0.7973018637,-0.3545036001
 ,-0.5323631444\H,-2.9940965951,1.9193260243,0.54610386\H,-3.4027178208
 ,-0.7173569047,1.1596990894\H,-4.0378317736,-0.3214458288,-0.438263388
 6\H,-1.8712701107,-2.1764577263,0.0122285519\H,-2.3254795337,-1.472647

 Normal termination of Gaussian 16 at Fri Dec  8 01:37:46 2017.
