 Gaussian 16, Revision A.03,
 Gaussian 16:  ES64L-G16RevA.03 25-Dec-2016

 ----------------------------------------------------------------------
 #p b3lyp empiricaldispersion=gd3bj 6-31g scrf=(pcm,solvent=perfluorobe
 nzene) opt=(ts,calcfc,maxstep=5,noeigentest) freq=noraman
 ----------------------------------------------------------------------

 ------
 TS Opt
 ------
 Symbolic Z-matrix:
 Charge =  0 Multiplicity = 1

 SCF Done:  E(RB3LYP) =  -672.280885222     A.U. after   19 cycles
 SCF Done:  E(RB3LYP) =  -672.284079287     A.U. after   11 cycles
 SCF Done:  E(RB3LYP) =  -672.286754182     A.U. after   11 cycles
 SCF Done:  E(RB3LYP) =  -672.288981054     A.U. after   11 cycles
 SCF Done:  E(RB3LYP) =  -672.290681063     A.U. after   12 cycles
 SCF Done:  E(RB3LYP) =  -672.291908682     A.U. after   12 cycles
 SCF Done:  E(RB3LYP) =  -672.292700111     A.U. after   12 cycles
 SCF Done:  E(RB3LYP) =  -672.293164238     A.U. after   11 cycles
 SCF Done:  E(RB3LYP) =  -672.293493239     A.U. after   11 cycles
 SCF Done:  E(RB3LYP) =  -672.293680390     A.U. after   12 cycles
 SCF Done:  E(RB3LYP) =  -672.293732813     A.U. after   11 cycles
 SCF Done:  E(RB3LYP) =  -672.293741180     A.U. after   11 cycles
 SCF Done:  E(RB3LYP) =  -672.293741490     A.U. after    9 cycles
 SCF Done:  E(RB3LYP) =  -672.293741484     A.U. after    8 cycles
 SCF Done:  E(RB3LYP) =  -672.293741542     A.U. after    7 cycles
 SCF Done:  E(RB3LYP) =  -672.293741565     A.U. after    7 cycles
 SCF Done:  E(RB3LYP) =  -672.293741572     A.U. after    7 cycles
 Optimization completed.
    -- Stationary point found.
 Normal termination of Gaussian 16 at Thu Dec  7 02:38:57 2017.

 -----------------------------------------------------------------
 #P Geom=AllCheck Guess=TCheck SCRF=Check GenChk RB3LYP/6-31G Freq
 -----------------------------------------------------------------

 Structure from the checkpoint file:  "/scratch/dhuang9_oac_methyl_indole_ts_631g/Gau-34517.chk"
 ------
 TS Opt
 ------
 Charge =  0 Multiplicity = 1

                         Standard orientation:
 ---------------------------------------------------------------------
 Center     Atomic      Atomic             Coordinates (Angstroms)
 Number     Number       Type             X           Y           Z
 ---------------------------------------------------------------------
      1          6           0        1.121782   -0.758709   -0.467297
      2          6           0        1.747714    0.491167   -0.214161
      3          6           0        3.018572    0.599648    0.353188
      4          6           0        3.677415   -0.591969    0.666561
      5          6           0        3.077868   -1.844535    0.419880
      6          6           0        1.802121   -1.939221   -0.141812
      7          6           0       -0.212931   -0.479930   -0.999420
      8          1           0        3.480358    1.561709    0.543331
      9          1           0        4.667860   -0.552473    1.106255
     10          1           0        3.620090   -2.749323    0.671894
     11          1           0        1.347633   -2.906734   -0.325419
     12          1           0       -0.824718   -1.164037   -1.583014
     13          6           0       -0.276334    0.925666   -1.128519
     14          1           0       -1.091581    1.527826   -1.496906
     15          6           0        1.113780    2.933111   -0.514008
     16          1           0        2.014899    3.205455   -1.070271
     17          1           0        0.264480    3.481683   -0.921636
     18          1           0        1.244989    3.208197    0.536847
     19          7           0        0.858953    1.500528   -0.635948
     20          6           0       -2.818482   -0.874125   -0.200621
     21          6           0       -3.523289    0.258099    0.246103
     22          6           0       -2.737754    1.117804    1.187587
     23          6           0       -1.537505    0.219354    1.596968
     24          6           0       -1.549871   -0.875892    0.571741
     25          1           0       -4.522382    0.508074   -0.090873
     26          1           0       -2.367608    2.036499    0.688001
     27          1           0       -3.304077    1.463092    2.063006
     28          1           0       -0.581446    0.753752    1.655193
     29          1           0       -1.711897   -0.213956    2.591661
     30          1           0       -1.040580   -1.815193    0.765166
     31          8           0       -3.078401   -1.741384   -1.117341
 ---------------------------------------------------------------------

 SCF Done:  E(RB3LYP) =  -672.293741572     A.U. after    1 cycles

 The electronic state is 1-A.
 Alpha  occ. eigenvalues --  -19.04020 -14.42088 -10.25502 -10.24714 -10.24104
 Alpha  occ. eigenvalues --  -10.21977 -10.20767 -10.20736 -10.20698 -10.20663
 Alpha  occ. eigenvalues --  -10.20034 -10.19995 -10.19674 -10.18922 -10.18378
 Alpha  occ. eigenvalues --  -10.16044  -1.02308  -0.94157  -0.86923  -0.83737
 Alpha  occ. eigenvalues --   -0.82076  -0.77045  -0.74863  -0.72078  -0.69795
 Alpha  occ. eigenvalues --   -0.67935  -0.64484  -0.61095  -0.59422  -0.56847
 Alpha  occ. eigenvalues --   -0.54058  -0.51693  -0.50702  -0.49685  -0.49374
 Alpha  occ. eigenvalues --   -0.46447  -0.46266  -0.45424  -0.45026  -0.44017
 Alpha  occ. eigenvalues --   -0.42406  -0.41564  -0.41055  -0.38463  -0.37512
 Alpha  occ. eigenvalues --   -0.37013  -0.36009  -0.35682  -0.35073  -0.34750
 Alpha  occ. eigenvalues --   -0.33321  -0.32803  -0.28771  -0.24857  -0.23971
 Alpha  occ. eigenvalues --   -0.18367  -0.15822
 Alpha virt. eigenvalues --   -0.07929  -0.02540   0.00545   0.05359   0.06614
 Alpha virt. eigenvalues --    0.09312   0.09842   0.10675   0.11169   0.12959
 Alpha virt. eigenvalues --    0.13342   0.13984   0.14165   0.14758   0.15738

 Mulliken charges:
               1
     1  C    0.021967
     2  C    0.272251
     3  C   -0.083674
     4  C   -0.158121
     5  C   -0.132248
     6  C   -0.153611
     7  C   -0.250641
     8  H    0.147212
     9  H    0.137217
    10  H    0.136806
    11  H    0.154952
    12  H    0.212599
    13  C    0.162124
    14  H    0.201792
    15  C   -0.247584
    16  H    0.187634
    17  H    0.180567
    18  H    0.184440
    19  N   -0.643187
    20  C    0.307943
    21  C   -0.147386
    22  C   -0.303283
    23  C   -0.301241
    24  C   -0.115880
    25  H    0.118390
    26  H    0.122807
    27  H    0.142953
    28  H    0.143986
    29  H    0.169598
    30  H    0.166580
    31  O   -0.634961
 Sum of Mulliken charges =   0.00000

 Dipole moment (field-independent basis, Debye):
    X=              7.4820    Y=              6.8586    Z=              2.7861  Tot=             10.5253
 Quadrupole moment (field-independent basis, Debye-Ang):
   XX=           -108.7083   YY=            -85.7391   ZZ=            -96.8677
   XY=            -12.1639   XZ=             -7.2011   YZ=             -8.4499

  Exact polarizability: 306.467 -10.145 182.853   7.368   3.944 115.033
 Approx polarizability: 460.270 -12.648 288.737   9.538   9.495 171.770

 ******    1 imaginary frequencies (negative Signs) ******

                      1                      2                      3
                      A                      A                      A
 Frequencies --   -252.5605                39.7194                62.7699
 Red. masses --      8.2442                 4.3991                 3.6892
 Frc consts  --      0.3098                 0.0041                 0.0086
 IR Inten    --    474.2767                 4.7413                 2.0846

                      4                      5                      6
                      A                      A                      A
 Frequencies --     68.4440                96.8546               120.3623
 Red. masses --      4.9299                 3.5511                 1.0893
 Frc consts  --      0.0136                 0.0196                 0.0093
 IR Inten    --      4.6690                 1.7172                 0.6107

                      7                      8                      9
                      A                      A                      A
 Frequencies --    147.1840               152.0792               219.2777
 Red. masses --      4.8990                 3.0970                 3.2566
 Frc consts  --      0.0625                 0.0422                 0.0923
 IR Inten    --     42.8671                 1.5434                26.5223

                     10                     11                     12
                      A                      A                      A
 Frequencies --    234.1177               258.8463               290.3238
 Red. masses --      2.8728                 3.0353                 3.1516
 Frc consts  --      0.0928                 0.1198                 0.1565
 IR Inten    --      2.2107                 0.7539                 4.7203

                     13                     14                     15
                      A                      A                      A
 Frequencies --    350.0798               443.2252               457.7342
 Red. masses --      2.9924                 2.9230                 4.6769
 Frc consts  --      0.2161                 0.3383                 0.5773
 IR Inten    --     16.6698                 9.2401                13.9025

                     16                     17                     18
                      A                      A                      A
 Frequencies --    500.0938               557.2477               582.5791
 Red. masses --      3.4365                 5.3410                 3.9325
 Frc consts  --      0.5064                 0.9772                 0.7864
 IR Inten    --      5.9142                 5.2683                29.9270

                     19                     20                     21
                      A                      A                      A
 Frequencies --    597.4661               603.5599               629.3544
 Red. masses --      3.9128                 3.9595                 3.3473
 Frc consts  --      0.8229                 0.8498                 0.7812
 IR Inten    --      0.5635                32.5558                14.9036

                     22                     23                     24
                      A                      A                      A
 Frequencies --    667.3832               709.9365               737.2791
 Red. masses --      4.1489                 2.1282                 4.9559
 Frc consts  --      1.0888                 0.6320                 1.5872
 IR Inten    --     39.4763                13.4815                 5.0930

                     25                     26                     27
                      A                      A                      A
 Frequencies --    780.2562               783.6669               786.2795
 Red. masses --      1.4403                 2.2077                 3.4306
 Frc consts  --      0.5166                 0.7988                 1.2496
 IR Inten    --     46.0207                72.6850                22.2710

                     28                     29                     30
                      A                      A                      A
 Frequencies --    792.6086               848.0249               858.9205
 Red. masses --      4.7152                 1.4965                 1.4222
 Frc consts  --      1.7453                 0.6341                 0.6182
 IR Inten    --     14.9646                 1.9870                15.1099

                     31                     32                     33
                      A                      A                      A
 Frequencies --    891.4329               897.5708               911.3810
 Red. masses --      1.8085                 2.0237                 4.5449
 Frc consts  --      0.8467                 0.9606                 2.2242
 IR Inten    --     77.7579               100.0491                28.6632

                     34                     35                     36
                      A                      A                      A
 Frequencies --    932.4926               968.6243               974.0638
 Red. masses --      2.0525                 1.6533                 1.4886
 Frc consts  --      1.0515                 0.9139                 0.8322
 IR Inten    --     40.3782                26.0147                23.3278

                     37                     38                     39
                      A                      A                      A
 Frequencies --   1010.3112              1019.6595              1035.3228
 Red. masses --      1.4758                 1.3136                 1.6563
 Frc consts  --      0.8875                 0.8047                 1.0460
 IR Inten    --     12.3533                 0.3858               147.2587

                     40                     41                     42
                      A                      A                      A
 Frequencies --   1051.8342              1067.7764              1078.0927
 Red. masses --      2.1304                 2.0834                 1.3311
 Frc consts  --      1.3887                 1.3995                 0.9115
 IR Inten    --      7.5407                 3.8511                 3.1151

                     43                     44                     45
                      A                      A                      A
 Frequencies --   1101.1040              1130.6785              1141.7203
 Red. masses --      1.4685                 1.9724                 1.4376
 Frc consts  --      1.0490                 1.4857                 1.1041
 IR Inten    --     14.1089                 2.5762                69.7240

                     46                     47                     48
                      A                      A                      A
 Frequencies --   1159.8940              1173.4285              1178.8175
 Red. masses --      1.2091                 1.3185                 1.6753
 Frc consts  --      0.9584                 1.0697                 1.3716
 IR Inten    --      2.9378                 0.7832                11.9705

                     49                     50                     51
                      A                      A                      A
 Frequencies --   1213.8163              1223.3374              1245.0478
 Red. masses --      1.2515                 1.3314                 1.9627
 Frc consts  --      1.0864                 1.1739                 1.7926
 IR Inten    --      4.4941                16.4957                 7.1143

                     52                     53                     54
                      A                      A                      A
 Frequencies --   1254.2197              1265.7030              1305.3212
 Red. masses --      1.9213                 1.8474                 1.6189
 Frc consts  --      1.7807                 1.7437                 1.6252
 IR Inten    --     12.5065                31.0332                66.6032

                     55                     56                     57
                      A                      A                      A
 Frequencies --   1329.7029              1343.1330              1357.6335
 Red. masses --      4.1156                 2.4932                 1.6231
 Frc consts  --      4.2873                 2.6500                 1.7626
 IR Inten    --     53.7772                21.6352                70.8626

                     58                     59                     60
                      A                      A                      A
 Frequencies --   1365.2581              1386.3004              1405.3361
 Red. masses --      2.1282                 1.8100                 4.2642
 Frc consts  --      2.3372                 2.0494                 4.9619
 IR Inten    --     48.2890                44.1373                 3.3977

                     61                     62                     63
                      A                      A                      A
 Frequencies --   1430.0178              1471.6602              1508.8514
 Red. masses --      3.5296                 1.7473                 1.1452
 Frc consts  --      4.2527                 2.2297                 1.5361
 IR Inten    --     47.0119               151.9960                28.8516

                     64                     65                     66
                      A                      A                      A
 Frequencies --   1509.1987              1521.1401              1525.5597
 Red. masses --      1.8410                 1.0904                 1.0466
 Frc consts  --      2.4705                 1.4865                 1.4352
 IR Inten    --     72.1435                 3.2196                20.0088

                     67                     68                     69
                      A                      A                      A
 Frequencies --   1534.3249              1540.0331              1561.5701
 Red. masses --      2.1004                 1.5802                 1.4163
 Frc consts  --      2.9133                 2.2081                 2.0348
 IR Inten    --     18.5722                48.4266                66.8671

                     70                     71                     72
                      A                      A                      A
 Frequencies --   1624.2845              1640.5377              1673.9135
 Red. masses --      6.6567                 5.9710                 6.9246
 Frc consts  --     10.3474                 9.4683                11.4316
 IR Inten    --    410.5188                14.5082                 0.5728

                     73                     74                     75
                      A                      A                      A
 Frequencies --   2913.4067              3039.5058              3050.5598
 Red. masses --      1.0730                 1.0684                 1.0758
 Frc consts  --      5.3663                 5.8153                 5.8983
 IR Inten    --     79.2429                21.3896                61.6074

                     76                     77                     78
                      A                      A                      A
 Frequencies --   3066.1858              3079.5060              3138.1767
 Red. masses --      1.0341                 1.0985                 1.1031
 Frc consts  --      5.7283                 6.1381                 6.4005
 IR Inten    --     39.4370                24.0101                13.8238

                     79                     80                     81
                      A                      A                      A
 Frequencies --   3160.2119              3180.8364              3201.6423
 Red. masses --      1.0978                 1.1013                 1.0912
 Frc consts  --      6.4595                 6.5651                 6.5905
 IR Inten    --     67.0106                 5.6935                 8.7578

                     82                     83                     84
                      A                      A                      A
 Frequencies --   3203.6272              3213.0374              3223.2444
 Red. masses --      1.0862                 1.0892                 1.0945
 Frc consts  --      6.5682                 6.6248                 6.6994
 IR Inten    --      0.2503                 6.6723                25.7657

                     85                     86                     87
                      A                      A                      A
 Frequencies --   3233.4969              3233.7548              3302.1842
 Red. masses --      1.0926                 1.0979                 1.0983
 Frc consts  --      6.7306                 6.7646                 7.0562
 IR Inten    --     41.2873                14.7196                 2.2988

 - Thermochemistry -
 -------------------
 Temperature   298.150 Kelvin.  Pressure   1.00000 Atm.
 Atom     1 has atomic number  6 and mass  12.00000

 Molecular mass:   213.11536 amu.
 Principal axes and moments of inertia in atomic units:
                           1         2         3
     Eigenvalues --  1949.794274604.285705518.42188
           X            0.99990  -0.01395  -0.00381
           Y            0.01391   0.99987  -0.00812
           Z            0.00393   0.00807   0.99996
 This molecule is an asymmetric top.
 Rotational symmetry number  1.
 Warning -- assumption of classical behavior for rotation
           may cause significant error
 Rotational temperatures (Kelvin)      0.04442     0.01881     0.01570
 Rotational constants (GHZ):           0.92561     0.39197     0.32704
    1 imaginary frequencies ignored.
 Zero-point vibrational energy     679330.3 (Joules/Mol)
                                  162.36384 (Kcal/Mol)
 Warning -- explicit consideration of  19 degrees of freedom as
           vibrations may cause significant error
 Vibrational temperatures:     57.15    90.31    98.48   139.35   173.17
          (Kelvin)            211.76   218.81   315.49   336.84   372.42
                              417.71   503.69   637.70   658.58   719.52
                              801.76   838.20   859.62   868.39   905.50
                              960.22  1021.44  1060.78  1122.61  1127.52
                             1131.28  1140.39  1220.12  1235.80  1282.57
                             1291.40  1311.27  1341.65  1393.63  1401.46
                             1453.61  1467.06  1489.60  1513.35  1536.29
                             1551.13  1584.24  1626.79  1642.68  1668.83
                             1688.30  1696.06  1746.41  1760.11  1791.35
                             1804.54  1821.06  1878.07  1913.15  1932.47
                             1953.33  1964.30  1994.58  2021.97  2057.48
                             2117.39  2170.90  2171.40  2188.58  2194.94
                             2207.55  2215.76  2246.75  2336.98  2360.37
                             2408.39  4191.74  4373.17  4389.08  4411.56
                             4430.72  4515.14  4546.84  4576.51  4606.45
                             4609.31  4622.84  4637.53  4652.28  4652.65
                             4751.11

 Zero-point correction=                           0.258743 (Hartree/Particle)
 Thermal correction to Energy=                    0.272222
 Thermal correction to Enthalpy=                  0.273166
 Thermal correction to Gibbs Free Energy=         0.217658
 Sum of electronic and zero-point Energies=           -672.034998
 Sum of electronic and thermal Energies=              -672.021519
 Sum of electronic and thermal Enthalpies=            -672.020575
 Sum of electronic and thermal Free Energies=         -672.076084

                     E (Thermal)             CV                S
                      KCal/Mol        Cal/Mol-Kelvin    Cal/Mol-Kelvin
 Total                  170.822             52.456            116.828
 Electronic               0.000              0.000              0.000
 Translational            0.889              2.981             41.973
 Rotational               0.889              2.981             32.271
 Vibrational            169.045             46.495             42.583
 Vibration     1          0.594              1.981              5.273
 Vibration     2          0.597              1.972              4.368
 Vibration     3          0.598              1.969              4.198
 Vibration     4          0.603              1.951              3.517
 Vibration     5          0.609              1.932              3.095
 Vibration     6          0.617              1.906              2.708
 Vibration     7          0.619              1.900              2.646
 Vibration     8          0.647              1.812              1.965
 Vibration     9          0.654              1.789              1.847
 Vibration    10          0.668              1.748              1.670
 Vibration    11          0.686              1.692              1.472
 Vibration    12          0.727              1.575              1.166
 Vibration    13          0.803              1.376              0.817
 Vibration    14          0.816              1.344              0.773
 Vibration    15          0.856              1.250              0.658
 Vibration    16          0.913              1.124              0.529
 Vibration    17          0.939              1.069              0.481
 Vibration    18          0.955              1.037              0.454
 Vibration    19          0.962              1.024              0.444

 Optimization completed.
    -- Stationary point found.

 1\1\GINC-HOLY7C05310\Freq\RB3LYP\6-31G\C14H15N1O1\ROOT\07-Dec-2017\0\\
 #P Geom=AllCheck Guess=TCheck SCRF=Check GenChk RB3LYP/6-31G Freq\\TS
 Opt\\0,1\C,1.146148701,-0.7309048254,-0.5136929119\C,1.7435368123,0.52
 70012374,-0.232875876\C,3.0245551041,0.6523374682,0.3075091379\C,3.723
 4531325,-0.5299842572,0.5641881946\C,3.1526662593,-1.7900467912,0.2891
 019092\C,1.8665217464,-1.9019300382,-0.2450427067\C,-0.2084601979,-0.4
 723438732,-1.0041135821\H,3.4642679068,1.6201707765,0.5194383642\H,4.7
 229951125,-0.4772259047,0.9813283167\H,3.7256208458,-2.6870608905,0.49

 Normal termination of Gaussian 16 at Thu Dec  7 02:47:45 2017.
