 Gaussian 16, Revision A.03,
 Gaussian 16:  ES64L-G16RevA.03 25-Dec-2016

 ----------------------------------------------------------------------
 #p b3lyp empiricaldispersion=gd3bj 6-31g opt=modredundant freq=noraman
 ----------------------------------------------------------------------

 ---------
 TS Freeze
 ---------
 Symbolic Z-matrix:
 Charge =  0 Multiplicity = 1

 SCF Done:  E(RB3LYP) =  -1074.32906756     A.U. after   17 cycles
 SCF Done:  E(RB3LYP) =  -1074.35018633     A.U. after   17 cycles
 SCF Done:  E(RB3LYP) =  -1074.34919786     A.U. after   16 cycles
 SCF Done:  E(RB3LYP) =  -1074.35813527     A.U. after   15 cycles
 SCF Done:  E(RB3LYP) =  -1074.35873346     A.U. after   16 cycles
 SCF Done:  E(RB3LYP) =  -1074.37244183     A.U. after   17 cycles
 SCF Done:  E(RB3LYP) =  -1074.36895313     A.U. after   16 cycles
 SCF Done:  E(RB3LYP) =  -1074.37665536     A.U. after   14 cycles
 SCF Done:  E(RB3LYP) =  -1074.37844665     A.U. after   13 cycles
 SCF Done:  E(RB3LYP) =  -1074.37908019     A.U. after   14 cycles
 SCF Done:  E(RB3LYP) =  -1074.38091222     A.U. after    9 cycles
 SCF Done:  E(RB3LYP) =  -1074.38091324     A.U. after    8 cycles
 SCF Done:  E(RB3LYP) =  -1074.38091429     A.U. after    9 cycles
 SCF Done:  E(RB3LYP) =  -1074.38091504     A.U. after    9 cycles
 SCF Done:  E(RB3LYP) =  -1074.38091537     A.U. after    8 cycles
 SCF Done:  E(RB3LYP) =  -1074.38091553     A.U. after    8 cycles
 SCF Done:  E(RB3LYP) =  -1074.38091568     A.U. after    8 cycles
 SCF Done:  E(RB3LYP) =  -1074.38091579     A.U. after    8 cycles
 SCF Done:  E(RB3LYP) =  -1074.38091585     A.U. after    8 cycles
 Optimization completed.
    -- Stationary point found.

 1\1\GINC-HOLY7C19205\FOpt\RB3LYP\6-31G\C21H24N2O2\ROOT\05-Dec-2017\0\\
 #p b3lyp empiricaldispersion=gd3bj 6-31g opt=modredundant freq=noraman
 \\TS Freeze\\0,1\N,-2.7576997111,0.5714217094,1.9301338067\H,-2.768010
 3096,-0.3681828314,1.5252611354\H,-3.2573651773,0.6250212237,2.8109507
 524\C,-3.1398208738,1.6161075275,0.9732522783\H,-4.2306878925,1.748882
 5544,0.8819441879\H,-2.7275268458,2.5834554694,1.2981527512\O,-3.35850
 8078,0.2020792805,-1.0400444491\H,-2.9922311625,-0.6416545414,-0.63892
 75533\C,-1.1398266138,1.1201029703,-0.5926179393\C,-0.2258854944,1.452

 Normal termination of Gaussian 16 at Tue Dec  5 21:38:52 2017.

 -----------------------------------------------------------------
 #P Geom=AllCheck Guess=TCheck SCRF=Check GenChk RB3LYP/6-31G Freq
 -----------------------------------------------------------------

 Structure from the checkpoint file:  "/scratch/dhuang9_oac_cat3_nocp_pyrrole_freeze_br/Gau-96141.chk"
 ---------
 TS Freeze
 ---------
 Charge =  0 Multiplicity = 1

                         Standard orientation:
 ---------------------------------------------------------------------
 Center     Atomic      Atomic             Coordinates (Angstroms)
 Number     Number       Type             X           Y           Z
 ---------------------------------------------------------------------
      1          7           0       -0.891580    3.126500   -1.643148
      2          1           0        0.040175    2.731552   -1.492369
      3          1           0       -0.942637    3.706493   -2.473436
      4          6           0       -1.448225    3.765119   -0.445099
      5          1           0       -1.111526    4.806024   -0.306873
      6          1           0       -2.546100    3.792649   -0.517359
      7          8           0        0.356903    3.195911    1.141779
      8          1           0        0.868833    2.584547    0.532598
      9          6           0       -1.443451    1.561455    0.912026
     10          6           0       -2.327575    0.962427    0.033809
     11          6           0       -0.841272    0.769377    1.929618
     12          6           0       -2.655198   -0.419390    0.140627
     13          1           0       -2.746812    1.534139   -0.784498
     14          6           0       -1.126217   -0.574050    2.053873
     15          1           0       -0.125071    1.250529    2.584999
     16          6           0       -3.551013   -1.052975   -0.764122
     17          6           0       -2.044690   -1.209320    1.172222
     18          1           0       -0.657199   -1.165584    2.835590
     19          6           0       -3.828858   -2.403398   -0.661806
     20          1           0       -4.011249   -0.453235   -1.543830
     21          6           0       -2.354424   -2.595060    1.256172
     22          6           0       -3.225414   -3.182700    0.358518
     23          1           0       -4.514477   -2.872894   -1.359613
     24          1           0       -1.895406   -3.185098    2.044835
     25          1           0       -3.454839   -4.240574    0.432526
     26          6           0        0.938912    0.309845   -0.883578
     27          6           0        0.008344   -0.138010   -1.840263
     28          6           0       -0.133089   -1.619751   -1.882901
     29          6           0        0.735546   -2.106914   -0.691946
     30          6           0        1.370679   -0.862495   -0.168706
     31          1           0       -0.566955    0.548677   -2.449552
     32          1           0       -1.177897   -1.938165   -1.770884
     33          1           0        0.209698   -2.033048   -2.844983
     34          1           0        0.097892   -2.561123    0.078097
     35          1           0        1.471416   -2.869234   -0.972713
     36          1           0        1.870517   -0.818776    0.788738
     37          8           0        1.346030    1.533631   -0.669321
     38          6           0       -1.056913    3.033170    0.848457
     39          1           0       -1.564260    3.555701    1.670605
     40          6           0        3.742012   -1.071192   -0.946638
     41          6           0        3.934520    0.223131   -0.459906
     42          6           0        4.223436   -1.985594    0.054153
     43          1           0        4.247008   -3.061915   -0.017217
     44          6           0        4.632384   -1.235320    1.137162
     45          1           0        5.043197   -1.529523    2.088610
     46          7           0        4.447495    0.107655    0.809862
     47          1           0        3.409717   -1.321619   -1.941124
     48          1           0        3.619602    1.169817   -0.863409
     49          1           0        4.624519    0.885114    1.424581
 ---------------------------------------------------------------------

 SCF Done:  E(RB3LYP) =  -1074.38091585     A.U. after    1 cycles

 The electronic state is 1-A.
 Alpha  occ. eigenvalues --  -19.08241 -19.07341 -14.39118 -14.26861 -10.23344
 Alpha  occ. eigenvalues --  -10.23182 -10.22157 -10.21901 -10.21037 -10.20446
 Alpha  occ. eigenvalues --  -10.19917 -10.19557 -10.19339 -10.19251 -10.18993
 Alpha  occ. eigenvalues --  -10.18958 -10.18921 -10.18765 -10.18717 -10.18418
 Alpha  occ. eigenvalues --  -10.18409 -10.18077 -10.18003 -10.17692 -10.17492
 Alpha  occ. eigenvalues --   -0.99165  -0.97589  -0.96073  -0.87402  -0.85582
 Alpha  occ. eigenvalues --   -0.84535  -0.82064  -0.78963  -0.77359  -0.74738
 Alpha  occ. eigenvalues --   -0.73846  -0.72300  -0.72082  -0.70341  -0.68731
 Alpha  occ. eigenvalues --   -0.62926  -0.61022  -0.60622  -0.59678  -0.58893
 Alpha  occ. eigenvalues --   -0.58086  -0.56671  -0.55551  -0.53564  -0.51436
 Alpha  occ. eigenvalues --   -0.50635  -0.49103  -0.48149  -0.47960  -0.47090
 Alpha  occ. eigenvalues --   -0.44822  -0.44757  -0.44659  -0.43719  -0.43058
 Alpha  occ. eigenvalues --   -0.42369  -0.41943  -0.41831  -0.41087  -0.40833
 Alpha  occ. eigenvalues --   -0.40702  -0.39468  -0.39012  -0.38749  -0.38073
 Alpha  occ. eigenvalues --   -0.37650  -0.37609  -0.36920  -0.36574  -0.35778
 Alpha  occ. eigenvalues --   -0.35323  -0.35050  -0.33756  -0.32393  -0.31291
 Alpha  occ. eigenvalues --   -0.28090  -0.27577  -0.26039  -0.24330  -0.23120
 Alpha  occ. eigenvalues --   -0.22394  -0.21713  -0.21084  -0.19468  -0.18748
 Alpha virt. eigenvalues --   -0.09237  -0.03363  -0.00381   0.02506   0.03518
 Alpha virt. eigenvalues --    0.06355   0.07019   0.07924   0.09393   0.09669
 Alpha virt. eigenvalues --    0.10428   0.11399   0.11692   0.12871   0.13568

 Mulliken charges:
               1
     1  N   -0.751240
     2  H    0.322983
     3  H    0.262686
     4  C   -0.093994
     5  H    0.122070
     6  H    0.109672
     7  O   -0.644683
     8  H    0.395519
     9  C    0.064783
    10  C   -0.164712
    11  C   -0.140586
    12  C    0.053413
    13  H    0.159021
    14  C   -0.175026
    15  H    0.148516
    16  C   -0.163972
    17  C    0.068847
    18  H    0.121409
    19  C   -0.138038
    20  H    0.132616
    21  C   -0.170017
    22  C   -0.131856
    23  H    0.124400
    24  H    0.126069
    25  H    0.123246
    26  C    0.347854
    27  C   -0.073388
    28  C   -0.331924
    29  C   -0.333197
    30  C   -0.045955
    31  H    0.174501
    32  H    0.186370
    33  H    0.155563
    34  H    0.186578
    35  H    0.161204
    36  H    0.175372
    37  O   -0.671661
    38  C    0.021450
    39  H    0.144757
    40  C   -0.231062
    41  C    0.130708
    42  C   -0.155744
    43  H    0.131021
    44  C    0.072911
    45  H    0.157688
    46  N   -0.655808
    47  H    0.140045
    48  H    0.214121
    49  H    0.337472
 Sum of Mulliken charges =   0.00000

 Dipole moment (field-independent basis, Debye):
    X=              1.5426    Y=             -4.9213    Z=             -0.5219  Tot=              5.1838
 Quadrupole moment (field-independent basis, Debye-Ang):
   XX=           -137.7594   YY=           -146.9532   ZZ=           -139.7188
   XY=             -1.9802   XZ=             12.0422   YZ=             -4.1307

  Exact polarizability: 271.632  18.403 274.115  52.681   0.018 197.515
 Approx polarizability: 422.548  44.393 470.447 150.973  -4.227 373.027

                      1                      2                      3
                      A                      A                      A
 Frequencies --     13.4766                23.5205                43.4890
 Red. masses --      5.2478                 4.8237                 4.0962
 Frc consts  --      0.0006                 0.0016                 0.0046
 IR Inten    --      0.7184                 2.0948                 7.4605

                      4                      5                      6
                      A                      A                      A
 Frequencies --     53.5426                60.9490                73.3806
 Red. masses --      4.2228                 6.0140                 5.0421
 Frc consts  --      0.0071                 0.0132                 0.0160
 IR Inten    --      7.7403                 0.4637                 1.6840

                      7                      8                      9
                      A                      A                      A
 Frequencies --     85.8504                93.5757               104.6676
 Red. masses --      4.0980                 4.7192                 4.8745
 Frc consts  --      0.0178                 0.0243                 0.0315
 IR Inten    --     18.4820                 0.1038                 1.1972

                     10                     11                     12
                      A                      A                      A
 Frequencies --    115.9052               136.1582               142.0950
 Red. masses --      5.6430                 3.5657                 4.7347
 Frc consts  --      0.0447                 0.0389                 0.0563
 IR Inten    --     30.2217                 0.6415                 4.1640

                     13                     14                     15
                      A                      A                      A
 Frequencies --    166.8700               177.4594               198.1352
 Red. masses --      4.4039                 3.6285                 3.3043
 Frc consts  --      0.0723                 0.0673                 0.0764
 IR Inten    --     13.0906                41.8247                12.7958

                     16                     17                     18
                      A                      A                      A
 Frequencies --    201.8617               210.5637               245.7261
 Red. masses --      3.7515                 3.8441                 2.7233
 Frc consts  --      0.0901                 0.1004                 0.0969
 IR Inten    --      2.9961                 3.5212                 6.4508

                     19                     20                     21
                      A                      A                      A
 Frequencies --    275.2822               291.3177               321.3684
 Red. masses --      2.8768                 4.2512                 3.9441
 Frc consts  --      0.1284                 0.2126                 0.2400
 IR Inten    --     10.1705                 5.3945                62.8276

                     22                     23                     24
                      A                      A                      A
 Frequencies --    323.4945               371.1338               407.9837
 Red. masses --      4.5834                 3.9535                 1.4530
 Frc consts  --      0.2826                 0.3208                 0.1425
 IR Inten    --     47.0723                 2.6406                66.2262

                     25                     26                     27
                      A                      A                      A
 Frequencies --    411.7277               444.9740               462.3468
 Red. masses --      2.0395                 3.4743                 4.5930
 Frc consts  --      0.2037                 0.4053                 0.5785
 IR Inten    --     25.0602                 1.3610                 6.4455

                     28                     29                     30
                      A                      A                      A
 Frequencies --    493.4005               501.6813               539.9034
 Red. masses --      2.7741                 3.5033                 6.8323
 Frc consts  --      0.3979                 0.5195                 1.1734
 IR Inten    --     12.9548                 3.8672                 0.2247

                     31                     32                     33
                      A                      A                      A
 Frequencies --    560.4328               606.6124               620.0183
 Red. masses --      3.8446                 2.9418                 2.7691
 Frc consts  --      0.7115                 0.6378                 0.6272
 IR Inten    --      0.6101                 2.6560                98.1837

                     34                     35                     36
                      A                      A                      A
 Frequencies --    630.5726               630.9620               652.3685
 Red. masses --      3.5697                 4.2894                 4.1388
 Frc consts  --      0.8363                 1.0061                 1.0378
 IR Inten    --      0.9128                 7.1510                 1.2850

                     37                     38                     39
                      A                      A                      A
 Frequencies --    667.3872               670.5358               681.5297
 Red. masses --      4.4043                 1.2881                 4.9873
 Frc consts  --      1.1558                 0.3412                 1.3648
 IR Inten    --     18.9874                95.1460                 1.2982

                     40                     41                     42
                      A                      A                      A
 Frequencies --    736.5314               742.9054               755.0626
 Red. masses --      1.2724                 1.4048                 1.7134
 Frc consts  --      0.4067                 0.4568                 0.5755
 IR Inten    --     20.4594                 7.2634                 7.4988

                     43                     44                     45
                      A                      A                      A
 Frequencies --    777.8723               785.2643               790.6901
 Red. masses --      1.5102                 2.1183                 2.7931
 Frc consts  --      0.5384                 0.7696                 1.0288
 IR Inten    --    156.0704                58.6915                49.8125

                     46                     47                     48
                      A                      A                      A
 Frequencies --    795.6700               799.7451               825.8158
 Red. masses --      4.3634                 2.2041                 1.3746
 Frc consts  --      1.6276                 0.8306                 0.5523
 IR Inten    --      3.1831                33.3504                18.0652

                     49                     50                     51
                      A                      A                      A
 Frequencies --    862.3062               867.1008               868.2430
 Red. masses --      1.4620                 1.3197                 2.0327
 Frc consts  --      0.6405                 0.5846                 0.9029
 IR Inten    --     53.0194                48.1482                32.5981

                     52                     53                     54
                      A                      A                      A
 Frequencies --    888.4545               890.9163               895.9148
 Red. masses --      1.3262                 1.3602                 1.5679
 Frc consts  --      0.6168                 0.6361                 0.7415
 IR Inten    --     42.2370                71.6146                36.5619

                     55                     56                     57
                      A                      A                      A
 Frequencies --    915.7884               918.1086               918.8345
 Red. masses --      3.6168                 2.5531                 2.0097
 Frc consts  --      1.7872                 1.2679                 0.9996
 IR Inten    --     12.0713                10.0604                98.7912

                     58                     59                     60
                      A                      A                      A
 Frequencies --    923.4637               926.8655               936.0106
 Red. masses --      2.1397                 3.3474                 1.6595
 Frc consts  --      1.0751                 1.6943                 0.8566
 IR Inten    --     66.5272                 1.3225                79.6264

                     61                     62                     63
                      A                      A                      A
 Frequencies --    950.0300               984.3616               988.4032
 Red. masses --      1.3466                 1.6299                 2.5680
 Frc consts  --      0.7161                 0.9305                 1.4781
 IR Inten    --      4.0666                 8.7657                 5.2374

                     64                     65                     66
                      A                      A                      A
 Frequencies --    994.1069              1002.1598              1006.5126
 Red. masses --      2.4041                 2.0246                 2.8034
 Frc consts  --      1.3998                 1.1980                 1.6733
 IR Inten    --     16.8176                 7.2813                10.8012

                     67                     68                     69
                      A                      A                      A
 Frequencies --   1015.7725              1021.3295              1039.0306
 Red. masses --      1.3683                 1.3406                 1.8342
 Frc consts  --      0.8318                 0.8239                 1.1667
 IR Inten    --      4.0709                 1.1395                34.7611

                     70                     71                     72
                      A                      A                      A
 Frequencies --   1046.9884              1059.5147              1089.7964
 Red. masses --      1.6107                 2.3853                 1.4901
 Frc consts  --      1.0403                 1.5776                 1.0427
 IR Inten    --     12.0943                 1.1994                13.1546

                     73                     74                     75
                      A                      A                      A
 Frequencies --   1095.9003              1106.5014              1121.1144
 Red. masses --      2.1689                 1.5825                 1.7204
 Frc consts  --      1.5348                 1.1416                 1.2740
 IR Inten    --     10.5447                 0.7693                10.7713

                     76                     77                     78
                      A                      A                      A
 Frequencies --   1133.8009              1165.5892              1173.4597
 Red. masses --      3.1496                 1.1700                 1.7694
 Frc consts  --      2.3855                 0.9365                 1.4355
 IR Inten    --     11.5152                 6.3214                 6.9336

                     79                     80                     81
                      A                      A                      A
 Frequencies --   1181.2239              1204.2881              1205.1510
 Red. masses --      2.3820                 1.3253                 1.3513
 Frc consts  --      1.9582                 1.1325                 1.1563
 IR Inten    --     11.0259                 3.6403                12.1747

                     82                     83                     84
                      A                      A                      A
 Frequencies --   1209.3388              1217.9241              1220.4418
 Red. masses --      1.2902                 1.1395                 1.1432
 Frc consts  --      1.1118                 0.9959                 1.0033
 IR Inten    --      1.7038                 8.7500                 0.2788

                     85                     86                     87
                      A                      A                      A
 Frequencies --   1237.8793              1262.4630              1267.8802
 Red. masses --      1.5436                 2.3523                 2.5924
 Frc consts  --      1.3936                 2.2090                 2.4553
 IR Inten    --      6.9779                39.6598                 0.8924

                     88                     89                     90
                      A                      A                      A
 Frequencies --   1284.0928              1292.9232              1312.1447
 Red. masses --      1.1046                 1.6351                 1.5860
 Frc consts  --      1.0732                 1.6104                 1.6088
 IR Inten    --      3.4732                16.7019                 0.5300

                     91                     92                     93
                      A                      A                      A
 Frequencies --   1327.8206              1331.4109              1347.0317
 Red. masses --      1.9489                 1.3844                 1.4543
 Frc consts  --      2.0245                 1.4459                 1.5547
 IR Inten    --     12.1371                32.0568                 5.8522

                     94                     95                     96
                      A                      A                      A
 Frequencies --   1351.0555              1360.5181              1387.3641
 Red. masses --      1.6149                 1.7640                 4.1846
 Frc consts  --      1.7367                 1.9238                 4.7456
 IR Inten    --     29.2559                45.2841               101.6559

                     97                     98                     99
                      A                      A                      A
 Frequencies --   1393.3885              1419.8545              1424.1986
 Red. masses --      1.6205                 2.2431                 3.5127
 Frc consts  --      1.8537                 2.6643                 4.1979
 IR Inten    --     13.0939                 8.8376                18.9894

                    100                    101                    102
                      A                      A                      A
 Frequencies --   1427.4982              1442.3811              1454.6717
 Red. masses --      2.7209                 5.6656                 1.3620
 Frc consts  --      3.2668                 6.9448                 1.6980
 IR Inten    --      1.0947                 7.6229                11.3120

                    103                    104                    105
                      A                      A                      A
 Frequencies --   1459.5047              1496.9878              1499.1915
 Red. masses --      2.6240                 1.9570                 1.1953
 Frc consts  --      3.2933                 2.5839                 1.5829
 IR Inten    --     66.2880                 0.6507                19.2109

                    106                    107                    108
                      A                      A                      A
 Frequencies --   1500.5888              1511.7742              1517.4181
 Red. masses --      1.1567                 2.2288                 1.1280
 Frc consts  --      1.5345                 3.0012                 1.5302
 IR Inten    --     74.5912                32.0969                10.5609

                    109                    110                    111
                      A                      A                      A
 Frequencies --   1531.2308              1562.7874              1567.3007
 Red. masses --      2.1415                 1.0979                 3.0622
 Frc consts  --      2.9583                 1.5799                 4.4318
 IR Inten    --      0.4948                 8.3578                 9.7449

                    112                    113                    114
                      A                      A                      A
 Frequencies --   1586.6623              1602.3528              1625.6848
 Red. masses --      2.7617                 3.7399                 6.5190
 Frc consts  --      4.0963                 5.6575                10.1509
 IR Inten    --     52.5335               174.5398                 8.1878

                    115                    116                    117
                      A                      A                      A
 Frequencies --   1661.6323              1689.1286              1739.6598
 Red. masses --      5.0942                 6.1307                 1.0840
 Frc consts  --      8.2871                10.3059                 1.9330
 IR Inten    --     11.0580                11.2394                38.3537

                    118                    119                    120
                      A                      A                      A
 Frequencies --   2977.7670              3010.9199              3014.8769
 Red. masses --      1.0646                 1.0695                 1.0946
 Frc consts  --      5.5620                 5.7124                 5.8621
 IR Inten    --    101.1917                29.3403                52.8834

                    121                    122                    123
                      A                      A                      A
 Frequencies --   3036.9635              3054.1648              3068.3936
 Red. masses --      1.0826                 1.0623                 1.0869
 Frc consts  --      5.8828                 5.8381                 6.0291
 IR Inten    --    130.8676                18.0911                 5.2195

                    124                    125                    126
                      A                      A                      A
 Frequencies --   3090.4140              3177.4651              3180.9461
 Red. masses --      1.0968                 1.0699                 1.0879
 Frc consts  --      6.1719                 6.3641                 6.4855
 IR Inten    --     13.1645               516.0193                 6.2461

                    127                    128                    129
                      A                      A                      A
 Frequencies --   3183.8875              3190.1021              3205.4325
 Red. masses --      1.0875                 1.0874                 1.0933
 Frc consts  --      6.4950                 6.5202                 6.6188
 IR Inten    --     29.6180                 0.7699                27.7053

                    130                    131                    132
                      A                      A                      A
 Frequencies --   3221.6792              3232.6386              3237.8695
 Red. masses --      1.0984                 1.0926                 1.0909
 Frc consts  --      6.7172                 6.7270                 6.7383
 IR Inten    --     39.6837                 5.4773                 1.5196

                    133                    134                    135
                      A                      A                      A
 Frequencies --   3249.3910              3266.9572              3278.2543
 Red. masses --      1.0935                 1.0939                 1.0905
 Frc consts  --      6.8023                 6.8787                 6.9048
 IR Inten    --      1.8526                 3.3099                 4.2150

                    136                    137                    138
                      A                      A                      A
 Frequencies --   3294.7416              3313.3229              3332.2494
 Red. masses --      1.0949                 1.1034                 1.1033
 Frc consts  --      7.0029                 7.1368                 7.2181
 IR Inten    --      2.0047                 1.1556                15.9886

                    139                    140                    141
                      A                      A                      A
 Frequencies --   3405.1831              3596.0872              3691.7680
 Red. masses --      1.0571                 1.0879                 1.0811
 Frc consts  --      7.2218                 8.2892                 8.6814
 IR Inten    --    257.9465                16.1363                69.9655

 - Thermochemistry -
 -------------------
 Temperature   298.150 Kelvin.  Pressure   1.00000 Atm.
 Atom     1 has atomic number  7 and mass  14.00307

 Molecular mass:   336.18378 amu.
 Principal axes and moments of inertia in atomic units:
                           1         2         3
     Eigenvalues --  6227.385069264.68804**********
           X            0.99986  -0.01290   0.01091
           Y            0.01296   0.99990  -0.00562
           Z           -0.01084   0.00576   0.99992
 This molecule is an asymmetric top.
 Rotational symmetry number  1.
 Warning -- assumption of classical behavior for rotation
           may cause significant error
 Rotational temperatures (Kelvin)      0.01391     0.00935     0.00699
 Rotational constants (GHZ):           0.28981     0.19480     0.14563
 Zero-point vibrational energy    1088329.7 (Joules/Mol)
                                  260.11705 (Kcal/Mol)
 Warning -- explicit consideration of  33 degrees of freedom as
           vibrations may cause significant error
 Vibrational temperatures:     19.39    33.84    62.57    77.04    87.69
          (Kelvin)            105.58   123.52   134.63   150.59   166.76
                              195.90   204.44   240.09   255.32   285.07
                              290.43   302.95   353.54   396.07   419.14
                              462.38   465.44   533.98   587.00   592.38
                              640.22   665.21   709.89   721.81   776.80
                              806.34   872.78   892.07   907.25   907.81
                              938.61   960.22   964.75   980.57  1059.70
                             1068.88  1086.37  1119.18  1129.82  1137.63
                             1144.79  1150.65  1188.16  1240.67  1247.56
                             1249.21  1278.29  1281.83  1289.02  1317.62
                             1320.95  1322.00  1328.66  1333.55  1346.71
                             1366.88  1416.28  1422.09  1430.30  1441.88
                             1448.15  1461.47  1469.47  1494.93  1506.38
                             1524.41  1567.97  1576.76  1592.01  1613.03
                             1631.29  1677.02  1688.35  1699.52  1732.70
                             1733.94  1739.97  1752.32  1755.94  1781.03
                             1816.40  1824.20  1847.52  1860.23  1887.88
                             1910.44  1915.60  1938.08  1943.87  1957.48
                             1996.11  2004.78  2042.85  2049.10  2053.85
                             2075.26  2092.95  2099.90  2153.83  2157.00
                             2159.01  2175.11  2183.23  2203.10  2248.50
                             2255.00  2282.85  2305.43  2339.00  2390.72
                             2430.28  2502.98  4284.34  4332.04  4337.74
                             4369.51  4394.26  4414.73  4446.42  4571.66
                             4576.67  4580.90  4589.85  4611.90  4635.28
                             4651.05  4658.57  4675.15  4700.42  4716.68
                             4740.40  4767.13  4794.36  4899.30  5173.97
                             5311.63

 Zero-point correction=                           0.414523 (Hartree/Particle)
 Thermal correction to Energy=                    0.437418
 Thermal correction to Enthalpy=                  0.438363
 Thermal correction to Gibbs Free Energy=         0.360383
 Sum of electronic and zero-point Energies=          -1073.966393
 Sum of electronic and thermal Energies=             -1073.943498
 Sum of electronic and thermal Enthalpies=           -1073.942553
 Sum of electronic and thermal Free Energies=        -1074.020533

                     E (Thermal)             CV                S
                      KCal/Mol        Cal/Mol-Kelvin    Cal/Mol-Kelvin
 Total                  274.484             89.031            164.122
 Electronic               0.000              0.000              0.000
 Translational            0.889              2.981             43.332
 Rotational               0.889              2.981             34.924
 Vibrational            272.707             83.069             85.866
 Vibration     1          0.593              1.987              7.418
 Vibration     2          0.593              1.985              6.312
 Vibration     3          0.595              1.980              5.093
 Vibration     4          0.596              1.976              4.682
 Vibration     5          0.597              1.973              4.426
 Vibration     6          0.599              1.967              4.061
 Vibration     7          0.601              1.959              3.752
 Vibration     8          0.603              1.954              3.584
 Vibration     9          0.605              1.945              3.365
 Vibration    10          0.608              1.936              3.168
 Vibration    11          0.614              1.917              2.857
 Vibration    12          0.616              1.911              2.775
 Vibration    13          0.624              1.883              2.470
 Vibration    14          0.628              1.870              2.355
 Vibration    15          0.637              1.842              2.150
 Vibration    16          0.639              1.837              2.116
 Vibration    17          0.643              1.825              2.039
 Vibration    18          0.660              1.770              1.761
 Vibration    19          0.677              1.719              1.563
 Vibration    20          0.687              1.690              1.466
 Vibration    21          0.707              1.633              1.303
 Vibration    22          0.708              1.628              1.292
 Vibration    23          0.743              1.531              1.075
 Vibration    24          0.773              1.453              0.934
 Vibration    25          0.776              1.445              0.921
 Vibration    26          0.804              1.372              0.811
 Vibration    27          0.820              1.334              0.759
 Vibration    28          0.849              1.265              0.675
 Vibration    29          0.857              1.246              0.654
 Vibration    30          0.895              1.162              0.565
 Vibration    31          0.916              1.117              0.523
 Vibration    32          0.965              1.018              0.438
 Vibration    33          0.980              0.990              0.416

                           ! Non-Optimized Parameters !

 1\1\GINC-HOLY7C19205\Freq\RB3LYP\6-31G\C21H24N2O2\ROOT\05-Dec-2017\0\\
 #P Geom=AllCheck Guess=TCheck SCRF=Check GenChk RB3LYP/6-31G Freq\\TS
 Freeze\\0,1\N,-2.7576997111,0.5714217094,1.9301338067\H,-2.7680103096,
 -0.3681828314,1.5252611354\H,-3.2573651773,0.6250212237,2.8109507524\C
 ,-3.1398208738,1.6161075275,0.9732522783\H,-4.2306878925,1.7488825544,
 0.8819441879\H,-2.7275268458,2.5834554694,1.2981527512\O,-3.358508078,
 0.2020792805,-1.0400444491\H,-2.9922311625,-0.6416545414,-0.6389275533
 \C,-1.1398266138,1.1201029703,-0.5926179393\C,-0.2258854944,1.45243077

 Normal termination of Gaussian 16 at Tue Dec  5 22:04:04 2017.
