 Gaussian 16, Revision A.03,
 Gaussian 16:  ES64L-G16RevA.03 25-Dec-2016

 ----------------------------------------------------------------------
 #p pddg scrf=(pcm,solvent=perfluorobenzene) opt=(ts,calcfc,maxstep=5,n
 oeigentest) freq=noraman
 ----------------------------------------------------------------------

 ------
 TS Opt
 ------
 Symbolic Z-matrix:
 Charge =  0 Multiplicity = 1

 SCF Done:  E(RPDDG) =  0.124324215322     A.U. after   17 cycles
 SCF Done:  E(RPDDG) =  0.124395967403     A.U. after   15 cycles
 SCF Done:  E(RPDDG) =  0.124438725165     A.U. after   15 cycles
 SCF Done:  E(RPDDG) =  0.124450290612     A.U. after   14 cycles
 SCF Done:  E(RPDDG) =  0.124450958827     A.U. after   12 cycles
 SCF Done:  E(RPDDG) =  0.124450223097     A.U. after   12 cycles
 Optimization completed.
    -- Stationary point found.
 Normal termination of Gaussian 16 at Thu Dec  7 02:10:33 2017.

 --------------------------------------------------------------
 #P Geom=AllCheck Guess=TCheck SCRF=Check GenChk RPDDG/ZDO Freq
 --------------------------------------------------------------

 Structure from the checkpoint file:  "/scratch/dhuang9_oac_methyl_indole_ts_pddg/Gau-78602.chk"
 ------
 TS Opt
 ------
 Charge =  0 Multiplicity = 1

                         Standard orientation:
 ---------------------------------------------------------------------
 Center     Atomic      Atomic             Coordinates (Angstroms)
 Number     Number       Type             X           Y           Z
 ---------------------------------------------------------------------
      1          6           0        1.135769   -0.748654   -0.489923
      2          6           0        1.683837    0.533849   -0.250536
      3          6           0        2.960141    0.702498    0.294141
      4          6           0        3.669612   -0.450414    0.590551
      5          6           0        3.134003   -1.728322    0.353876
      6          6           0        1.867998   -1.895560   -0.185285
      7          6           0       -0.203135   -0.577278   -1.031166
      8          1           0        3.389690    1.699412    0.483195
      9          1           0        4.679113   -0.366660    1.020868
     10          1           0        3.739328   -2.613090    0.603178
     11          1           0        1.446109   -2.895338   -0.370673
     12          1           0       -0.682011   -1.315777   -1.704793
     13          6           0       -0.393260    0.826084   -1.153433
     14          1           0       -1.323867    1.317316   -1.498283
     15          6           0        0.775661    2.917671   -0.435896
     16          1           0        1.757921    3.234631   -0.049701
     17          1           0        0.584267    3.499639   -1.351367
     18          1           0        0.015270    3.223267    0.305323
     19          7           0        0.723937    1.482937   -0.691429
     20          6           0       -2.812906   -0.802638   -0.169791
     21          6           0       -3.289081    0.424305    0.318792
     22          6           0       -2.367725    1.029773    1.307409
     23          6           0       -1.343019   -0.077959    1.610370
     24          6           0       -1.532939   -1.072285    0.518620
     25          1           0       -4.255200    0.869304    0.072218
     26          1           0       -1.864381    1.926235    0.870093
     27          1           0       -2.888726    1.391353    2.216425
     28          1           0       -0.297487    0.287941    1.691495
     29          1           0       -1.548154   -0.562706    2.589259
     30          1           0       -1.095584   -2.084032    0.609828
     31          8           0       -3.304198   -1.559810   -1.039179
 ---------------------------------------------------------------------

 SCF Done:  E(RPDDG) =  0.124450223093     A.U. after    2 cycles

 The electronic state is 1-A.
 Alpha  occ. eigenvalues --   -1.58287  -1.46545  -1.33577  -1.25544  -1.22281
 Alpha  occ. eigenvalues --   -1.10856  -1.03324  -1.03158  -0.97094  -0.92115
 Alpha  occ. eigenvalues --   -0.83123  -0.78868  -0.76164  -0.74325  -0.68266
 Alpha  occ. eigenvalues --   -0.67342  -0.63424  -0.62865  -0.62347  -0.61351
 Alpha  occ. eigenvalues --   -0.58838  -0.57735  -0.57292  -0.55171  -0.53487
 Alpha  occ. eigenvalues --   -0.52570  -0.52245  -0.51661  -0.50415  -0.49000
 Alpha  occ. eigenvalues --   -0.48073  -0.47791  -0.47433  -0.46964  -0.45930
 Alpha  occ. eigenvalues --   -0.44621  -0.40352  -0.35915  -0.34985  -0.33789
 Alpha  occ. eigenvalues --   -0.26655
 Alpha virt. eigenvalues --   -0.06321  -0.01512  -0.00097   0.02361   0.03438
 Alpha virt. eigenvalues --    0.07414   0.08312   0.08735   0.09466   0.09724
 Alpha virt. eigenvalues --    0.10157   0.10381   0.11116   0.11665   0.11789

 Mulliken charges:
               1
     1  C   -0.077339
     2  C   -0.208208
     3  C   -0.120547
     4  C   -0.145027
     5  C   -0.147083
     6  C   -0.110085
     7  C   -0.245478
     8  H    0.164707
     9  H    0.158176
    10  H    0.158310
    11  H    0.167556
    12  H    0.217146
    13  C   -0.193357
    14  H    0.220409
    15  C   -0.307513
    16  H    0.129449
    17  H    0.126273
    18  H    0.120979
    19  N    0.381274
    20  C    0.215453
    21  C   -0.430659
    22  C   -0.119255
    23  C   -0.237614
    24  C    0.046856
    25  H    0.173469
    26  H    0.088153
    27  H    0.106995
    28  H    0.126133
    29  H    0.134502
    30  H    0.145829
    31  O   -0.539504
 Sum of Mulliken charges =   0.00000

 Dipole moment (field-independent basis, Debye):
    X=              8.4060    Y=              5.7068    Z=              3.1060  Tot=             10.6243
 N-N= 5.808499382349D+02 E-N=-9.700270359475D+02  KE=-1.338474959099D+02
  Exact polarizability: 339.942 -12.280 176.435  -3.295   6.191  97.442
 Approx polarizability: 174.887  -7.924 145.585  15.312   7.575  69.390
 Leave Link  601 at Thu Dec  7 02:10:58 2017, MaxMem=   402653184 cpu:               1.0 elap:               0.3
 (Enter /n/sw/g16_nehalem/g16/l701.exe)
 ... and contract with generalized density number  0.
 Compute integral second derivatives.
 D2PCM: PCM CHGder 2nd derivatives, FixD1E=F FixD2E=F DoIter=F DoCFld=F I1PDM=0
 GePol: Maximum number of non-zero 2nd derivatives   =     217
 Leave Link  701 at Thu Dec  7 02:11:05 2017, MaxMem=   402653184 cpu:              24.9 elap:               7.1

 ******    1 imaginary frequencies (negative Signs) ******

                      1                      2                      3
                      A                      A                      A
 Frequencies --   -498.9119                51.4731                68.3055
 Red. masses --      8.3283                 4.3021                 5.2057
 Frc consts  --      1.2214                 0.0067                 0.0143
 IR Inten    --   3135.3306                 4.6818                 3.2736

                      4                      5                      6
                      A                      A                      A
 Frequencies --     78.4924               107.4298               129.6664
 Red. masses --      1.2209                 3.3678                 4.3885
 Frc consts  --      0.0044                 0.0229                 0.0435
 IR Inten    --      0.0472                 3.2916                13.3853

                      7                      8                      9
                      A                      A                      A
 Frequencies --    147.1872               162.3886               218.4617
 Red. masses --      2.9910                 4.0421                 3.4397
 Frc consts  --      0.0382                 0.0628                 0.0967
 IR Inten    --      4.4189                11.0619                 4.9608

                     10                     11                     12
                      A                      A                      A
 Frequencies --    250.9797               265.8536               320.2620
 Red. masses --      2.3476                 3.9531                 3.0156
 Frc consts  --      0.0871                 0.1646                 0.1822
 IR Inten    --     15.1422                 3.9603                 2.2167

                     13                     14                     15
                      A                      A                      A
 Frequencies --    328.3605               387.1677               471.3390
 Red. masses --      2.6284                 2.5444                 5.0583
 Frc consts  --      0.1670                 0.2247                 0.6621
 IR Inten    --     17.6518                23.1822                26.0365

                     16                     17                     18
                      A                      A                      A
 Frequencies --    488.6748               500.4057               515.1842
 Red. masses --      2.8935                 3.2682                 2.6189
 Frc consts  --      0.4071                 0.4822                 0.4095
 IR Inten    --     16.2663                30.3841                60.6511

                     19                     20                     21
                      A                      A                      A
 Frequencies --    557.2731               583.7429               608.2194
 Red. masses --      5.4154                 5.1770                 3.1021
 Frc consts  --      0.9909                 1.0394                 0.6761
 IR Inten    --      0.9873                 4.2566                40.5094

                     22                     23                     24
                      A                      A                      A
 Frequencies --    661.8328               708.6047               725.5342
 Red. masses --      6.0859                 1.7841                 3.3904
 Frc consts  --      1.5706                 0.5278                 1.0515
 IR Inten    --      7.0094                65.3359                17.9857

                     25                     26                     27
                      A                      A                      A
 Frequencies --    740.1554               755.3901               775.4054
 Red. masses --      3.7997                 2.4772                 1.2335
 Frc consts  --      1.2264                 0.8328                 0.4370
 IR Inten    --      9.5575                35.2823               158.2358

                     28                     29                     30
                      A                      A                      A
 Frequencies --    822.2902               840.9368               863.2094
 Red. masses --      1.4900                 3.5970                 1.4535
 Frc consts  --      0.5936                 1.4987                 0.6381
 IR Inten    --     62.6072                 2.0542               161.1978

                     31                     32                     33
                      A                      A                      A
 Frequencies --    875.4838               902.9527               919.1857
 Red. masses --      1.5117                 1.3898                 1.9945
 Frc consts  --      0.6827                 0.6676                 0.9928
 IR Inten    --     10.9448               264.2860                45.4221

                     34                     35                     36
                      A                      A                      A
 Frequencies --    943.9151               953.8066               973.6157
 Red. masses --      1.5182                 1.4792                 1.2322
 Frc consts  --      0.7970                 0.7928                 0.6882
 IR Inten    --      2.5695               180.5107                11.2770

                     37                     38                     39
                      A                      A                      A
 Frequencies --    983.2156              1002.6467              1010.0298
 Red. masses --      1.8315                 1.3920                 1.3070
 Frc consts  --      1.0432                 0.8245                 0.7856
 IR Inten    --      0.8417                52.3454                63.4986

                     40                     41                     42
                      A                      A                      A
 Frequencies --   1023.0156              1026.6255              1036.9660
 Red. masses --      1.2297                 1.1939                 1.0709
 Frc consts  --      0.7582                 0.7414                 0.6784
 IR Inten    --      3.3712                65.2314                 4.7114

                     43                     44                     45
                      A                      A                      A
 Frequencies --   1054.1315              1057.4743              1065.3086
 Red. masses --      1.2841                 1.2095                 1.2256
 Frc consts  --      0.8407                 0.7969                 0.8195
 IR Inten    --      8.6940                 3.6251                32.3211

                     46                     47                     48
                      A                      A                      A
 Frequencies --   1078.0802              1086.8498              1105.2486
 Red. masses --      1.3901                 1.2314                 1.9655
 Frc consts  --      0.9519                 0.8570                 1.4146
 IR Inten    --      4.4857                 1.3325                43.3712

                     49                     50                     51
                      A                      A                      A
 Frequencies --   1115.5354              1126.6113              1185.7386
 Red. masses --      1.1434                 1.4798                 1.3583
 Frc consts  --      0.8383                 1.1067                 1.1252
 IR Inten    --      1.8905                 8.5537                12.4977

                     52                     53                     54
                      A                      A                      A
 Frequencies --   1192.0489              1208.6825              1254.0640
 Red. masses --      1.3132                 1.7800                 1.0833
 Frc consts  --      1.0995                 1.5321                 1.0038
 IR Inten    --      4.2449                20.0353                16.5816

                     55                     56                     57
                      A                      A                      A
 Frequencies --   1266.4571              1281.3187              1284.6428
 Red. masses --      1.1582                 1.2115                 1.3912
 Frc consts  --      1.0945                 1.1719                 1.3528
 IR Inten    --      0.8820                42.4845                82.8896

                     58                     59                     60
                      A                      A                      A
 Frequencies --   1331.8325              1353.1456              1370.3022
 Red. masses --      1.7334                 2.0396                 4.2929
 Frc consts  --      1.8115                 2.2003                 4.7493
 IR Inten    --      7.2740                87.8842               411.0586

                     61                     62                     63
                      A                      A                      A
 Frequencies --   1382.6067              1387.9954              1400.0138
 Red. masses --      4.5444                 8.5061                 3.7566
 Frc consts  --      5.1183                 9.6551                 4.3383
 IR Inten    --     89.4789                14.1886                98.2811

                     64                     65                     66
                      A                      A                      A
 Frequencies --   1431.4330              1478.0308              1517.5535
 Red. masses --      4.6810                 7.1677                 6.8334
 Frc consts  --      5.6510                 9.2257                 9.2721
 IR Inten    --    137.5346               593.1116                 9.8378

                     67                     68                     69
                      A                      A                      A
 Frequencies --   1533.8462              1559.4318              1642.9915
 Red. masses --      7.2874                 6.4727                 7.1473
 Frc consts  --     10.1015                 9.2741                11.3675
 IR Inten    --    339.2146                41.6349                 1.5421

                     70                     71                     72
                      A                      A                      A
 Frequencies --   1808.1117              1829.2890              1863.7788
 Red. masses --      9.6420                10.5640                11.5630
 Frc consts  --     18.5723                20.8277                23.6651
 IR Inten    --      1.6738                 1.1972              1410.7782

                     73                     74                     75
                      A                      A                      A
 Frequencies --   2820.9961              2887.1388              2914.9639
 Red. masses --      1.0809                 1.0972                 1.0830
 Frc consts  --      5.0681                 5.3886                 5.4216
 IR Inten    --      6.2321                30.2553                26.6195

                     76                     77                     78
                      A                      A                      A
 Frequencies --   2920.2295              2920.5191              2929.9501
 Red. masses --      1.0647                 1.0707                 1.1010
 Frc consts  --      5.3494                 5.3809                 5.5689
 IR Inten    --     19.8113                15.2777                72.6164

                     79                     80                     81
                      A                      A                      A
 Frequencies --   2947.3021              2954.4736              2956.1820
 Red. masses --      1.0972                 1.0718                 1.0943
 Frc consts  --      5.6155                 5.5120                 5.6344
 IR Inten    --    132.2763                36.3177                 0.1164

                     82                     83                     84
                      A                      A                      A
 Frequencies --   2959.3456              2959.9742              2962.5154
 Red. masses --      1.0897                 1.1041                 1.0947
 Frc consts  --      5.6230                 5.6995                 5.6607
 IR Inten    --     43.2616                30.5116                55.8602

                     85                     86                     87
                      A                      A                      A
 Frequencies --   2970.8219              2978.6977              3070.7613
 Red. masses --      1.1010                 1.1071                 1.0936
 Frc consts  --      5.7251                 5.7875                 6.0757
 IR Inten    --    143.1708                96.5369               193.7287

 - Thermochemistry -
 -------------------
 Temperature   298.150 Kelvin.  Pressure   1.00000 Atm.
 Atom     1 has atomic number  6 and mass  12.00000

 Molecular mass:   213.11536 amu.
 Principal axes and moments of inertia in atomic units:
                           1         2         3
     Eigenvalues --  1895.161474448.313745295.94168
           X            0.99988  -0.01548  -0.00313
           Y            0.01546   0.99987  -0.00364
           Z            0.00318   0.00359   0.99999
 This molecule is an asymmetric top.
 Rotational symmetry number  1.
 Warning -- assumption of classical behavior for rotation
           may cause significant error
 Rotational temperatures (Kelvin)      0.04570     0.01947     0.01635
 Rotational constants (GHZ):           0.95229     0.40571     0.34078
    1 imaginary frequencies ignored.
 Zero-point vibrational energy     653113.9 (Joules/Mol)
                                  156.09796 (Kcal/Mol)
 Warning -- explicit consideration of  20 degrees of freedom as
           vibrations may cause significant error
 Vibrational temperatures:     74.06    98.28   112.93   154.57   186.56
          (Kelvin)            211.77   233.64   314.32   361.10   382.50
                              460.79   472.44   557.05   678.15   703.09
                              719.97   741.24   801.79   839.88   875.09
                              952.23  1019.52  1043.88  1064.92  1086.84
                             1115.64  1183.09  1209.92  1241.97  1259.63
                             1299.15  1322.50  1358.08  1372.31  1400.82
                             1414.63  1442.58  1453.21  1471.89  1477.09
                             1491.96  1516.66  1521.47  1532.74  1551.12
                             1563.73  1590.21  1605.01  1620.94  1706.01
                             1715.09  1739.02  1804.32  1822.15  1843.53
                             1848.31  1916.21  1946.87  1971.56  1989.26
                             1997.02  2014.31  2059.51  2126.56  2183.42
                             2206.86  2243.67  2363.90  2601.47  2631.94
                             2681.56  4058.78  4153.95  4193.98  4201.56
                             4201.98  4215.54  4240.51  4250.83  4253.29
                             4257.84  4258.74  4262.40  4274.35  4285.68
                             4418.14

 Zero-point correction=                           0.248758 (Hartree/Particle)
 Thermal correction to Energy=                    0.262393
 Thermal correction to Enthalpy=                  0.263337
 Thermal correction to Gibbs Free Energy=         0.208206
 Sum of electronic and zero-point Energies=              0.373208
 Sum of electronic and thermal Energies=                 0.386844
 Sum of electronic and thermal Enthalpies=               0.387788
 Sum of electronic and thermal Free Energies=            0.332657

                     E (Thermal)             CV                S
                      KCal/Mol        Cal/Mol-Kelvin    Cal/Mol-Kelvin
 Total                  164.654             54.048            116.033
 Electronic               0.000              0.000              0.000
 Translational            0.889              2.981             41.973
 Rotational               0.889              2.981             32.168
 Vibrational            162.877             48.086             41.892
 Vibration     1          0.596              1.977              4.760
 Vibration     2          0.598              1.969              4.202
 Vibration     3          0.600              1.964              3.928
 Vibration     4          0.606              1.943              3.315
 Vibration     5          0.612              1.924              2.951
 Vibration     6          0.617              1.906              2.708
 Vibration     7          0.622              1.889              2.522
 Vibration     8          0.646              1.813              1.972
 Vibration     9          0.663              1.761              1.724
 Vibration    10          0.672              1.736              1.623
 Vibration    11          0.706              1.635              1.309
 Vibration    12          0.712              1.619              1.268
 Vibration    13          0.756              1.498              1.011
 Vibration    14          0.828              1.314              0.734
 Vibration    15          0.845              1.275              0.687
 Vibration    16          0.856              1.249              0.657
 Vibration    17          0.870              1.216              0.621
 Vibration    18          0.913              1.124              0.529
 Vibration    19          0.941              1.067              0.478
 Vibration    20          0.967              1.014              0.436

 Optimization completed.
    -- Stationary point found.
 Normal termination of Gaussian 16 at Thu Dec  7 02:11:11 2017.
