 Gaussian 16, Revision A.03,
 Gaussian 16:  ES64L-G16RevA.03 25-Dec-2016

 ----------------------------------------------------------------------
 #p b3lyp empiricaldispersion=gd3bj 6-31g* scrf=(pcm,solvent=perfluorob
 enzene) opt freq=noraman
 ----------------------------------------------------------------------

 --------------
 Methyl Pyrrole
 --------------
 Symbolic Z-matrix:
 Charge =  0 Multiplicity = 1

 SCF Done:  E(RB3LYP) =  -249.469454139     A.U. after   12 cycles
 SCF Done:  E(RB3LYP) =  -249.495370392     A.U. after   11 cycles
 SCF Done:  E(RB3LYP) =  -249.497463398     A.U. after   10 cycles
 SCF Done:  E(RB3LYP) =  -249.497448795     A.U. after   10 cycles
 SCF Done:  E(RB3LYP) =  -249.497770027     A.U. after    9 cycles
 SCF Done:  E(RB3LYP) =  -249.497793653     A.U. after    9 cycles
 SCF Done:  E(RB3LYP) =  -249.497794257     A.U. after    9 cycles
 SCF Done:  E(RB3LYP) =  -249.497805153     A.U. after    9 cycles
 SCF Done:  E(RB3LYP) =  -249.497806650     A.U. after    8 cycles
 SCF Done:  E(RB3LYP) =  -249.497808845     A.U. after    8 cycles
 SCF Done:  E(RB3LYP) =  -249.497810073     A.U. after    7 cycles
 SCF Done:  E(RB3LYP) =  -249.497810776     A.U. after    8 cycles
 SCF Done:  E(RB3LYP) =  -249.497811340     A.U. after    7 cycles
 Optimization completed.
    -- Stationary point found.
 Normal termination of Gaussian 16 at Thu Dec  7 19:17:04 2017.

 --------------------------------------------------------------------
 #P Geom=AllCheck Guess=TCheck SCRF=Check GenChk RB3LYP/6-31G(d) Freq
 --------------------------------------------------------------------

 Structure from the checkpoint file:  "/scratch/dhuang9_methyl_pyrrole_isolated_b3lyp_631gs_pfb/Gau-27717.chk"
 --------------
 Methyl Pyrrole
 --------------
 Charge =  0 Multiplicity = 1

                         Standard orientation:
 ---------------------------------------------------------------------
 Center     Atomic      Atomic             Coordinates (Angstroms)
 Number     Number       Type             X           Y           Z
 ---------------------------------------------------------------------
      1          6           0        1.492019   -0.712301    0.015891
      2          6           0        0.174212   -1.120432   -0.014321
      3          6           0        1.491934    0.712439    0.015825
      4          1           0        2.356074    1.363112    0.021997
      5          6           0        0.174118    1.120458   -0.014305
      6          1           0       -0.266550    2.107362   -0.022770
      7          6           0       -2.073967   -0.000015    0.026185
      8          1           0       -2.462214   -0.886660   -0.481308
      9          1           0       -2.432079   -0.000358    1.062514
     10          1           0       -2.461979    0.887086   -0.480665
     11          7           0       -0.624751   -0.000106   -0.039228
     12          1           0        2.356217   -1.363071    0.022048
     13          1           0       -0.266111   -2.107623   -0.022872
 ---------------------------------------------------------------------

 SCF Done:  E(RB3LYP) =  -249.497811340     A.U. after    1 cycles

 The electronic state is 1-A.
 Alpha  occ. eigenvalues --  -14.37584 -10.22494 -10.19404 -10.19403 -10.16136
 Alpha  occ. eigenvalues --  -10.16092  -0.97292  -0.79182  -0.71079  -0.68304
 Alpha  occ. eigenvalues --   -0.56297  -0.54290  -0.52141  -0.45715  -0.43564
 Alpha  occ. eigenvalues --   -0.41028  -0.40038  -0.37024  -0.36560  -0.36400
 Alpha  occ. eigenvalues --   -0.22578  -0.20228
 Alpha virt. eigenvalues --    0.04499   0.09114   0.10096   0.12528   0.14396
 Alpha virt. eigenvalues --    0.16551   0.17398   0.17578   0.18317   0.19116
 Alpha virt. eigenvalues --    0.25333   0.26980   0.34682   0.38051   0.46218

 Mulliken charges:
               1
     1  C   -0.197710
     2  C    0.012224
     3  C   -0.197694
     4  H    0.123024
     5  C    0.012183
     6  H    0.141827
     7  C   -0.319351
     8  H    0.173358
     9  H    0.174207
    10  H    0.173362
    11  N   -0.360280
    12  H    0.123023
    13  H    0.141826
 Sum of Mulliken charges =   0.00000

 Dipole moment (field-independent basis, Debye):
    X=             -2.3170    Y=             -0.0001    Z=              0.0073  Tot=              2.3170
 Quadrupole moment (field-independent basis, Debye-Ang):
   XX=            -31.2412   YY=            -32.6872   ZZ=            -39.0002
   XY=             -0.0005   XZ=              0.0869   YZ=              0.0002

  Exact polarizability:  77.705   0.000  67.331  -0.087   0.000  29.627
 Approx polarizability: 103.593   0.000  95.498   0.517   0.000  39.912

                      1                      2                      3
                      A                      A                      A
 Frequencies --     90.5188               187.6783               360.7932
 Red. masses --      1.0487                 3.4116                 2.5731
 Frc consts  --      0.0051                 0.0708                 0.1973
 IR Inten    --      0.0792                 3.8006                 0.6981

                      4                      5                      6
                      A                      A                      A
 Frequencies --    618.4073               625.5656               673.0979
 Red. masses --      4.1549                 3.5637                 1.3085
 Frc consts  --      0.9362                 0.8217                 0.3493
 IR Inten    --      7.6536                 0.0003                 0.0326

                      7                      8                      9
                      A                      A                      A
 Frequencies --    677.7546               729.9885               804.2501
 Red. masses --      4.2437                 1.1527                 1.2502
 Frc consts  --      1.1485                 0.3619                 0.4765
 IR Inten    --      5.6911                94.2220                 0.5158

                     10                     11                     12
                      A                      A                      A
 Frequencies --    859.7998               894.3703               994.3082
 Red. masses --      1.2305                 5.7596                 1.9952
 Frc consts  --      0.5360                 2.7144                 1.1622
 IR Inten    --      0.1093                 0.0001                10.9603

                     13                     14                     15
                      A                      A                      A
 Frequencies --   1074.4079              1091.8920              1116.7953
 Red. masses --      1.4726                 2.2938                 1.2028
 Frc consts  --      1.0015                 1.6112                 0.8839
 IR Inten    --      7.7958                 0.2141                10.2518

                     16                     17                     18
                      A                      A                      A
 Frequencies --   1119.4826              1158.1550              1307.3795
 Red. masses --      1.3366                 1.2969                 1.2865
 Frc consts  --      0.9869                 1.0249                 1.2955
 IR Inten    --     32.5613                 7.2687                 0.3317

                     19                     20                     21
                      A                      A                      A
 Frequencies --   1334.2339              1417.4319              1439.4135
 Red. masses --      4.7584                 4.1829                 4.3837
 Frc consts  --      4.9909                 4.9514                 5.3513
 IR Inten    --     51.4584                 0.1479                 7.8419

                     22                     23                     24
                      A                      A                      A
 Frequencies --   1473.9376              1514.8212              1536.4169
 Red. masses --      1.3071                 1.0509                 1.1251
 Frc consts  --      1.6731                 1.4208                 1.5648
 IR Inten    --     23.8568                13.5327                 6.7264

                     25                     26                     27
                      A                      A                      A
 Frequencies --   1558.6463              1575.1001              3053.2683
 Red. masses --      2.6353                 3.6222                 1.0389
 Frc consts  --      3.7720                 5.2947                 5.7063
 IR Inten    --     38.3256                 1.2674                70.6282

                     28                     29                     30
                      A                      A                      A
 Frequencies --   3122.3845              3153.2382              3246.0836
 Red. masses --      1.0978                 1.1050                 1.0875
 Frc consts  --      6.3061                 6.4732                 6.7518
 IR Inten    --     24.9563                15.1716                 4.1555

                     31                     32                     33
                      A                      A                      A
 Frequencies --   3257.1147              3270.8950              3277.6575
 Red. masses --      1.0923                 1.0991                 1.1066
 Frc consts  --      6.8273                 6.9285                 7.0045
 IR Inten    --      9.0820                 9.8332                 1.4229

 - Thermochemistry -
 -------------------
 Temperature   298.150 Kelvin.  Pressure   1.00000 Atm.
 Atom     1 has atomic number  6 and mass  12.00000

 Molecular mass:    81.05785 amu.
 Principal axes and moments of inertia in atomic units:
                           1         2         3
     Eigenvalues --   207.97351 508.05740 704.27035
           X            1.00000  -0.00001  -0.00074
           Y            0.00001   1.00000   0.00000
           Z            0.00074   0.00000   1.00000
 This molecule is an asymmetric top.
 Rotational symmetry number  1.
 Rotational temperatures (Kelvin)      0.41647     0.17048     0.12298
 Rotational constants (GHZ):           8.67775     3.55224     2.56257
 Zero-point vibrational energy     290784.0 (Joules/Mol)
                                   69.49904 (Kcal/Mol)
 Warning -- explicit consideration of   4 degrees of freedom as
           vibrations may cause significant error
 Vibrational temperatures:    130.24   270.03   519.10   889.75   900.05
          (Kelvin)            968.44   975.14  1050.29  1157.14  1237.06
                             1286.80  1430.59  1545.83  1570.99  1606.82
                             1610.69  1666.33  1881.03  1919.66  2039.37
                             2071.00  2120.67  2179.49  2210.56  2242.54
                             2266.22  4392.97  4492.41  4536.81  4670.39
                             4686.26  4706.09  4715.82

 Zero-point correction=                           0.110754 (Hartree/Particle)
 Thermal correction to Energy=                    0.116321
 Thermal correction to Enthalpy=                  0.117265
 Thermal correction to Gibbs Free Energy=         0.081756
 Sum of electronic and zero-point Energies=           -249.387058
 Sum of electronic and thermal Energies=              -249.381491
 Sum of electronic and thermal Enthalpies=            -249.380547
 Sum of electronic and thermal Free Energies=         -249.416055

                     E (Thermal)             CV                S
                      KCal/Mol        Cal/Mol-Kelvin    Cal/Mol-Kelvin
 Total                   72.992             20.078             74.733
 Electronic               0.000              0.000              0.000
 Translational            0.889              2.981             39.092
 Rotational               0.889              2.981             25.812
 Vibrational             71.215             14.116              9.829
 Vibration     1          0.602              1.956              3.649
 Vibration     2          0.632              1.857              2.251
 Vibration     3          0.735              1.553              1.119
 Vibration     4          0.978              0.993              0.419

 Optimization completed.
    -- Stationary point found.
 Normal termination of Gaussian 16 at Thu Dec  7 19:19:27 2017.
