 Gaussian 16, Revision A.03,
 Gaussian 16:  ES64L-G16RevA.03 25-Dec-2016

 ------------------------
 #p pddg opt freq=noraman
 ------------------------

 ---------------
 Isolated Indole
 ---------------
 Symbolic Z-matrix:
 Charge =  0 Multiplicity = 1

 SCF Done:  E(RPDDG) =  0.414278333743     A.U. after   16 cycles
 SCF Done:  E(RPDDG) =  0.218863506217     A.U. after   15 cycles
 SCF Done:  E(RPDDG) =  0.889271298011E-01 A.U. after   15 cycles
 SCF Done:  E(RPDDG) =  0.724323555083E-01 A.U. after   13 cycles
 SCF Done:  E(RPDDG) =  0.694240137910E-01 A.U. after   14 cycles
 SCF Done:  E(RPDDG) =  0.686348596784E-01 A.U. after   12 cycles
 SCF Done:  E(RPDDG) =  0.685089838796E-01 A.U. after   12 cycles
 SCF Done:  E(RPDDG) =  0.684999551470E-01 A.U. after   12 cycles
 SCF Done:  E(RPDDG) =  0.684943646598E-01 A.U. after   11 cycles
 SCF Done:  E(RPDDG) =  0.684842758529E-01 A.U. after   11 cycles
 SCF Done:  E(RPDDG) =  0.684057082104E-01 A.U. after   13 cycles
 SCF Done:  E(RPDDG) =  0.684015549313E-01 A.U. after   12 cycles
 SCF Done:  E(RPDDG) =  0.684005509187E-01 A.U. after   12 cycles
 SCF Done:  E(RPDDG) =  0.684025781313E-01 A.U. after   12 cycles
 SCF Done:  E(RPDDG) =  0.683974540847E-01 A.U. after   13 cycles
 SCF Done:  E(RPDDG) =  0.683962289566E-01 A.U. after   11 cycles
 SCF Done:  E(RPDDG) =  0.683867305407E-01 A.U. after   13 cycles
 SCF Done:  E(RPDDG) =  0.683787601184E-01 A.U. after   12 cycles
 SCF Done:  E(RPDDG) =  0.683783487672E-01 A.U. after   11 cycles
 Optimization completed.
    -- Stationary point found.
 Normal termination of Gaussian 16 at Tue Nov 28 01:42:54 2017.

 --------------------------------------------------------------
 #P Geom=AllCheck Guess=TCheck SCRF=Check GenChk RPDDG/ZDO Freq
 --------------------------------------------------------------

 Structure from the checkpoint file:  "/scratch/dhuang9_methyl_indole_isolated_pddg/Gau-60210.chk"
 ---------------
 Isolated Indole
 ---------------
 Charge =  0 Multiplicity = 1

                         Standard orientation:
 ---------------------------------------------------------------------
 Center     Atomic      Atomic             Coordinates (Angstroms)
 Number     Number       Type             X           Y           Z
 ---------------------------------------------------------------------
      1          6           0        0.392362    0.956246    0.007117
      2          6           0       -0.140663   -0.357198   -0.037538
      3          6           0        0.684841   -1.490063   -0.047574
      4          6           0        2.048696   -1.270639   -0.010159
      5          6           0        2.588036    0.030536    0.031060
      6          6           0        1.777027    1.149902    0.038133
      7          6           0       -0.710653    1.879504    0.008141
      8          1           0        0.267007   -2.507572   -0.082485
      9          1           0        2.735160   -2.129365   -0.012910
     10          1           0        3.680497    0.149244    0.057542
     11          1           0        2.199570    2.164181    0.066881
     12          1           0       -0.624423    2.968482    0.034510
     13          6           0       -1.875999    1.137804   -0.033781
     14          1           0       -2.913470    1.498139   -0.039114
     15          6           0       -2.485728   -1.315787    0.098290
     16          1           0       -2.070339   -2.273280   -0.253116
     17          1           0       -2.751899   -1.450067    1.158885
     18          1           0       -3.421919   -1.135981   -0.450291
     19          7           0       -1.538243   -0.229373   -0.114576
 ---------------------------------------------------------------------

 SCF Done:  E(RPDDG) =  0.683783487669E-01 A.U. after    2 cycles

 The electronic state is 1-A.
 Alpha  occ. eigenvalues --   -1.51825  -1.31565  -1.19531  -1.08287  -1.00323
 Alpha  occ. eigenvalues --   -0.90467  -0.80448  -0.75740  -0.73275  -0.65862
 Alpha  occ. eigenvalues --   -0.60650  -0.60019  -0.56827  -0.55635  -0.55353
 Alpha  occ. eigenvalues --   -0.53091  -0.51366  -0.49728  -0.49163  -0.46702
 Alpha  occ. eigenvalues --   -0.44629  -0.42749  -0.37891  -0.32526  -0.30469
 Alpha virt. eigenvalues --    0.00585   0.02587   0.05496   0.06483   0.10339
 Alpha virt. eigenvalues --    0.10904   0.11561   0.12157   0.12647   0.13658
 Alpha virt. eigenvalues --    0.13989   0.14508   0.14824   0.14935   0.16567

 Mulliken charges:
               1
     1  C   -0.087192
     2  C   -0.166531
     3  C   -0.146029
     4  C   -0.137179
     5  C   -0.179381
     6  C   -0.093214
     7  C   -0.204387
     8  H    0.152462
     9  H    0.145445
    10  H    0.147752
    11  H    0.151238
    12  H    0.173228
    13  C   -0.280318
    14  H    0.184837
    15  C   -0.277841
    16  H    0.111993
    17  H    0.100489
    18  H    0.107351
    19  N    0.297277
 Sum of Mulliken charges =   0.00000

 Dipole moment (field-independent basis, Debye):
    X=             -1.8174    Y=             -1.2016    Z=              0.2012  Tot=              2.1879
 N-N= 2.633502292076D+02 E-N=-4.148597347557D+02  KE=-7.722156343419D+01
  Exact polarizability: 126.161  -1.463  99.082   2.039   1.886  21.165
 Approx polarizability: 105.423  -0.008  89.115   2.281   2.017  15.376
 Leave Link  601 at Tue Nov 28 01:42:59 2017, MaxMem=   134217728 cpu:               0.2 elap:               0.2
 (Enter /n/sw/g16_nehalem/g16/l701.exe)
 ... and contract with generalized density number  0.
 Compute integral second derivatives.
 Leave Link  701 at Tue Nov 28 01:42:59 2017, MaxMem=   134217728 cpu:               0.2 elap:               0.2
 (Enter /n/sw/g16_nehalem/g16/l702.exe)
 L702 exits ... SP integral derivatives will be done elsewhere.

                      1                      2                      3
                      A                      A                      A
 Frequencies --     74.4530               103.4163               196.1794
 Red. masses --      2.8071                 1.1002                 3.7642
 Frc consts  --      0.0092                 0.0069                 0.0854
 IR Inten    --     10.3022                 1.1110                 4.5507

                      4                      5                      6
                      A                      A                      A
 Frequencies --    205.5654               303.7402               385.2340
 Red. masses --      4.2453                 2.9284                 2.5465
 Frc consts  --      0.1057                 0.1592                 0.2227
 IR Inten    --      4.6553                 0.7622                11.3364

                      7                      8                      9
                      A                      A                      A
 Frequencies --    468.0139               487.1892               509.1946
 Red. masses --      3.0091                 3.2050                 2.1856
 Frc consts  --      0.3883                 0.4482                 0.3339
 IR Inten    --      7.4087                 1.9636                 0.6701

                     10                     11                     12
                      A                      A                      A
 Frequencies --    557.7580               585.3349               709.3685
 Red. masses --      5.4607                 5.7649                 2.4174
 Frc consts  --      1.0009                 1.1637                 0.7167
 IR Inten    --      0.2235                 1.6414                 9.3801

                     13                     14                     15
                      A                      A                      A
 Frequencies --    736.5170               767.0078               797.8197
 Red. masses --      4.9233                 1.2150                 1.3044
 Frc consts  --      1.5735                 0.4211                 0.4892
 IR Inten    --      1.8714                51.8686               131.9863

                     16                     17                     18
                      A                      A                      A
 Frequencies --    846.4997               865.2530               896.6044
 Red. masses --      3.5915                 1.4437                 1.6954
 Frc consts  --      1.5163                 0.6368                 0.8030
 IR Inten    --      4.5721                 1.5896                 2.4052

                     19                     20                     21
                      A                      A                      A
 Frequencies --    931.0035               940.6289               956.1510
 Red. masses --      3.2328                 1.5449                 1.2498
 Frc consts  --      1.6509                 0.8054                 0.6732
 IR Inten    --      0.5215                 9.8273                16.3268

                     22                     23                     24
                      A                      A                      A
 Frequencies --    973.4489               992.8543              1044.5504
 Red. masses --      1.8317                 1.4596                 1.1000
 Frc consts  --      1.0227                 0.8477                 0.7072
 IR Inten    --      0.0766                 6.3783                 7.9397

                     25                     26                     27
                      A                      A                      A
 Frequencies --   1061.4895              1086.3777              1115.6647
 Red. masses --      1.1930                 1.2105                 1.0735
 Frc consts  --      0.7920                 0.8417                 0.7873
 IR Inten    --      1.4262                 0.3856                 0.0337

                     28                     29                     30
                      A                      A                      A
 Frequencies --   1121.1534              1189.3818              1201.3462
 Red. masses --      1.5315                 1.2319                 1.8622
 Frc consts  --      1.1342                 1.0268                 1.5835
 IR Inten    --      8.1604                 1.0553                 6.5736

                     31                     32                     33
                      A                      A                      A
 Frequencies --   1271.2698              1274.9052              1318.6835
 Red. masses --      1.0824                 1.1526                 1.8122
 Frc consts  --      1.0307                 1.1037                 1.8567
 IR Inten    --      7.2350                 4.7892                76.4147

                     34                     35                     36
                      A                      A                      A
 Frequencies --   1349.8437              1417.3958              1451.8115
 Red. masses --      5.0910                 8.0231                 4.5453
 Frc consts  --      5.4653                 9.4968                 5.6446
 IR Inten    --     55.9597                15.9449                 1.3793

                     37                     38                     39
                      A                      A                      A
 Frequencies --   1495.0942              1551.6554              1650.2986
 Red. masses --      6.1811                 7.3991                 6.9846
 Frc consts  --      8.1406                10.4958                11.2077
 IR Inten    --      4.6634                60.5375                 7.2861

                     40                     41                     42
                      A                      A                      A
 Frequencies --   1664.0389              1805.7617              1830.7119
 Red. masses --      7.5941                 9.6837                10.3958
 Frc consts  --     12.3895                18.6043                20.5280
 IR Inten    --      0.8123                 2.4761                 5.3434

                     43                     44                     45
                      A                      A                      A
 Frequencies --   2947.6200              2953.3173              2963.8029
 Red. masses --      1.0658                 1.0756                 1.0932
 Frc consts  --      5.4561                 5.5274                 5.6577
 IR Inten    --      6.1090                12.1179                 1.1210

                     46                     47                     48
                      A                      A                      A
 Frequencies --   2968.6678              2971.5025              2980.0620
 Red. masses --      1.1048                 1.0940                 1.1010
 Frc consts  --      5.7365                 5.6913                 5.7609
 IR Inten    --     10.9941                35.3342                83.7036

                     49                     50                     51
                      A                      A                      A
 Frequencies --   2988.4215              3007.7488              3068.2390
 Red. masses --      1.1065                 1.1020                 1.1016
 Frc consts  --      5.8224                 5.8735                 6.1101
 IR Inten    --     46.7273                99.3871                72.3070

 - Thermochemistry -
 -------------------
 Temperature   298.150 Kelvin.  Pressure   1.00000 Atm.
 Atom     1 has atomic number  6 and mass  12.00000

 Molecular mass:   131.07350 amu.
 Principal axes and moments of inertia in atomic units:
                           1         2         3
     Eigenvalues --   682.412801402.926692070.86993
           X            0.99967   0.02577  -0.00191
           Y           -0.02577   0.99967  -0.00096
           Z            0.00188   0.00101   1.00000
 This molecule is an asymmetric top.
 Rotational symmetry number  1.
 Warning -- assumption of classical behavior for rotation
           may cause significant error
 Rotational temperatures (Kelvin)      0.12692     0.06174     0.04182
 Rotational constants (GHZ):           2.64465     1.28641     0.87149
 Zero-point vibrational energy     400988.6 (Joules/Mol)
                                   95.83856 (Kcal/Mol)
 Warning -- explicit consideration of  11 degrees of freedom as
           vibrations may cause significant error
 Vibrational temperatures:    107.12   148.79   282.26   295.76   437.01
          (Kelvin)            554.27   673.37   700.96   732.62   802.49
                              842.17  1020.62  1059.68  1103.55  1147.88
                             1217.92  1244.91  1290.01  1339.51  1353.36
                             1375.69  1400.58  1428.50  1502.88  1527.25
                             1563.06  1605.19  1613.09  1711.26  1728.47
                             1829.07  1834.30  1897.29  1942.12  2039.32
                             2088.83  2151.11  2232.49  2374.41  2394.18
                             2598.09  2633.99  4240.97  4249.16  4264.25
                             4271.25  4275.33  4287.64  4299.67  4327.48
                             4414.51

 Zero-point correction=                           0.152728 (Hartree/Particle)
 Thermal correction to Energy=                    0.161000
 Thermal correction to Enthalpy=                  0.161944
 Thermal correction to Gibbs Free Energy=         0.119473
 Sum of electronic and zero-point Energies=              0.221107
 Sum of electronic and thermal Energies=                 0.229378
 Sum of electronic and thermal Enthalpies=               0.230323
 Sum of electronic and thermal Free Energies=            0.187851

                     E (Thermal)             CV                S
                      KCal/Mol        Cal/Mol-Kelvin    Cal/Mol-Kelvin
 Total                  101.029             32.357             89.389
 Electronic               0.000              0.000              0.000
 Translational            0.889              2.981             40.525
 Rotational               0.889              2.981             29.074
 Vibrational             99.252             26.396             19.791
 Vibration     1          0.599              1.966              4.032
 Vibration     2          0.605              1.946              3.389
 Vibration     3          0.636              1.845              2.169
 Vibration     4          0.640              1.832              2.083
 Vibration     5          0.695              1.667              1.396
 Vibration     6          0.754              1.502              1.019
 Vibration     7          0.825              1.321              0.743
 Vibration     8          0.843              1.278              0.691
 Vibration     9          0.864              1.230              0.636
 Vibration    10          0.913              1.123              0.528
 Vibration    11          0.942              1.063              0.476

 Optimization completed.
    -- Stationary point found.
 Normal termination of Gaussian 16 at Tue Nov 28 01:43:00 2017.
