 Gaussian 16, Revision A.03,
 Gaussian 16:  ES64L-G16RevA.03 25-Dec-2016

 ----------------------------------------------------------------------
 #p b3lyp empiricaldispersion=gd3bj midix scrf=(pcm,solvent=perfluorobe
 nzene) opt freq=noraman
 ----------------------------------------------------------------------

 --------------
 Methyl Pyrrole
 --------------
 Symbolic Z-matrix:
 Charge =  0 Multiplicity = 1

 SCF Done:  E(RB3LYP) =  -248.026335341     A.U. after   12 cycles
 SCF Done:  E(RB3LYP) =  -248.051621688     A.U. after   11 cycles
 SCF Done:  E(RB3LYP) =  -248.053627239     A.U. after   11 cycles
 SCF Done:  E(RB3LYP) =  -248.053564404     A.U. after   10 cycles
 SCF Done:  E(RB3LYP) =  -248.053900249     A.U. after   10 cycles
 SCF Done:  E(RB3LYP) =  -248.053923575     A.U. after   10 cycles
 SCF Done:  E(RB3LYP) =  -248.053921332     A.U. after    9 cycles
 SCF Done:  E(RB3LYP) =  -248.053935089     A.U. after    9 cycles
 SCF Done:  E(RB3LYP) =  -248.053935969     A.U. after    8 cycles
 SCF Done:  E(RB3LYP) =  -248.053936912     A.U. after    8 cycles
 SCF Done:  E(RB3LYP) =  -248.053938210     A.U. after    8 cycles
 SCF Done:  E(RB3LYP) =  -248.053939537     A.U. after    8 cycles
 SCF Done:  E(RB3LYP) =  -248.053940203     A.U. after    8 cycles
 SCF Done:  E(RB3LYP) =  -248.053940633     A.U. after    8 cycles
 Optimization completed.
    -- Stationary point found.
 Normal termination of Gaussian 16 at Fri Dec  8 01:12:16 2017.

 -----------------------------------------------------------------
 #P Geom=AllCheck Guess=TCheck SCRF=Check GenChk RB3LYP/MIDIx Freq
 -----------------------------------------------------------------

 Structure from the checkpoint file:  "/scratch/dhuang9_methyl_pyrrole_isolated_midix_pfb/Gau-135515.chk"
 --------------
 Methyl Pyrrole
 --------------
 Charge =  0 Multiplicity = 1

                         Standard orientation:
 ---------------------------------------------------------------------
 Center     Atomic      Atomic             Coordinates (Angstroms)
 Number     Number       Type             X           Y           Z
 ---------------------------------------------------------------------
      1          6           0        1.494245   -0.713774    0.013990
      2          6           0        0.175387   -1.129076   -0.011966
      3          6           0        1.494178    0.713830    0.013967
      4          1           0        2.363998    1.357920    0.020983
      5          6           0        0.175304    1.129086   -0.011952
      6          1           0       -0.261773    2.118768   -0.022072
      7          6           0       -2.083125   -0.000029    0.023875
      8          1           0       -2.464445   -0.891843   -0.487510
      9          1           0       -2.442139   -0.000770    1.063253
     10          1           0       -2.464310    0.892580   -0.486204
     11          7           0       -0.624264   -0.000032   -0.036407
     12          1           0        2.364150   -1.357802    0.021015
     13          1           0       -0.261562   -2.118848   -0.022095
 ---------------------------------------------------------------------

 SCF Done:  E(RB3LYP) =  -248.053940633     A.U. after    1 cycles

 The electronic state is 1-A.
 Alpha  occ. eigenvalues --  -14.29010 -10.16398 -10.13055 -10.13037 -10.09590
 Alpha  occ. eigenvalues --  -10.09526  -0.98029  -0.80074  -0.71765  -0.68823
 Alpha  occ. eigenvalues --   -0.56565  -0.54633  -0.52386  -0.45797  -0.43644
 Alpha  occ. eigenvalues --   -0.41276  -0.40530  -0.37241  -0.37013  -0.36660
 Alpha  occ. eigenvalues --   -0.22586  -0.20555
 Alpha virt. eigenvalues --    0.04698   0.09353   0.09480   0.11757   0.13429
 Alpha virt. eigenvalues --    0.16030   0.17269   0.17277   0.17908   0.19446
 Alpha virt. eigenvalues --    0.28008   0.28129   0.38717   0.43666   0.46504

 Mulliken charges:
               1
     1  C   -0.239662
     2  C    0.101327
     3  C   -0.239680
     4  H    0.156054
     5  C    0.101330
     6  H    0.164575
     7  C   -0.211816
     8  H    0.182750
     9  H    0.182548
    10  H    0.182751
    11  N   -0.700815
    12  H    0.156064
    13  H    0.164574
 Sum of Mulliken charges =   0.00000

 Dipole moment (field-independent basis, Debye):
    X=             -2.5640    Y=              0.0000    Z=             -0.0002  Tot=              2.5640
 Quadrupole moment (field-independent basis, Debye-Ang):
   XX=            -31.3888   YY=            -32.9098   ZZ=            -39.6031
   XY=             -0.0006   XZ=              0.0695   YZ=              0.0000

  Exact polarizability:  73.447   0.001  63.295  -0.095   0.000  29.682
 Approx polarizability:  98.531   0.001  89.025   0.477   0.000  37.635

                      1                      2                      3
                      A                      A                      A
 Frequencies --     75.0709               187.4714               364.4848
 Red. masses --      1.0483                 3.4175                 2.5777
 Frc consts  --      0.0035                 0.0708                 0.2018
 IR Inten    --      0.1676                 4.0368                 0.9535

                      4                      5                      6
                      A                      A                      A
 Frequencies --    621.8674               639.7640               680.7994
 Red. masses --      3.6894                 2.9468                 4.2271
 Frc consts  --      0.8406                 0.7106                 1.1543
 IR Inten    --      8.2954                 0.0135                 6.1459

                      7                      8                      9
                      A                      A                      A
 Frequencies --    711.0522               744.6648               861.8549
 Red. masses --      1.2983                 1.1480                 1.3122
 Frc consts  --      0.3867                 0.3751                 0.5743
 IR Inten    --      0.0626               150.1008                 0.0575

                     10                     11                     12
                      A                      A                      A
 Frequencies --    923.6731               926.6023              1006.6899
 Red. masses --      1.3604                 5.0142                 2.0456
 Frc consts  --      0.6838                 2.5365                 1.2214
 IR Inten    --      0.0068                 0.5383                17.9028

                     13                     14                     15
                      A                      A                      A
 Frequencies --   1069.6578              1093.0192              1113.5740
 Red. masses --      1.5348                 2.9533                 1.2345
 Frc consts  --      1.0346                 2.0788                 0.9020
 IR Inten    --      4.3221                 1.2546                29.1415

                     16                     17                     18
                      A                      A                      A
 Frequencies --   1114.6370              1145.4711              1318.7709
 Red. masses --      1.2049                 1.2778                 1.3076
 Frc consts  --      0.8820                 0.9879                 1.3398
 IR Inten    --     17.3102                 6.9431                 0.0580

                     19                     20                     21
                      A                      A                      A
 Frequencies --   1326.9770              1403.9287              1423.4542
 Red. masses --      4.7234                 4.5020                 3.9876
 Frc consts  --      4.9004                 5.2281                 4.7605
 IR Inten    --     49.6771                 0.2384                10.1622

                     22                     23                     24
                      A                      A                      A
 Frequencies --   1478.6721              1530.2042              1545.6449
 Red. masses --      1.3898                 1.1085                 1.7860
 Frc consts  --      1.7904                 1.5293                 2.5139
 IR Inten    --     16.1919                21.3524                 2.0638

                     25                     26                     27
                      A                      A                      A
 Frequencies --   1547.5209              1558.4470              3022.1563
 Red. masses --      2.0466                 1.5342                 1.0380
 Frc consts  --      2.8878                 2.1954                 5.5859
 IR Inten    --     17.2661                11.6241                61.4855

                     28                     29                     30
                      A                      A                      A
 Frequencies --   3087.6948              3119.2060              3239.7226
 Red. masses --      1.0952                 1.1033                 1.0880
 Frc consts  --      6.1517                 6.3247                 6.7283
 IR Inten    --     22.0676                12.0813                 2.8321

                     31                     32                     33
                      A                      A                      A
 Frequencies --   3248.6739              3261.0133              3272.0066
 Red. masses --      1.0916                 1.0998                 1.1094
 Frc consts  --      6.7879                 6.8909                 6.9981
 IR Inten    --      5.7124                 7.1879                 2.9697

 - Thermochemistry -
 -------------------
 Temperature   298.150 Kelvin.  Pressure   1.00000 Atm.
 Atom     1 has atomic number  6 and mass  12.00000

 Molecular mass:    81.05785 amu.
 Principal axes and moments of inertia in atomic units:
                           1         2         3
     Eigenvalues --   210.14421 510.79802 709.14080
           X            1.00000   0.00000  -0.00064
           Y            0.00000   1.00000   0.00000
           Z            0.00064   0.00000   1.00000
 This molecule is an asymmetric top.
 Rotational symmetry number  1.
 Rotational temperatures (Kelvin)      0.41216     0.16957     0.12214
 Rotational constants (GHZ):           8.58811     3.53318     2.54497
 Zero-point vibrational energy     291078.0 (Joules/Mol)
                                   69.56932 (Kcal/Mol)
 Warning -- explicit consideration of   3 degrees of freedom as
           vibrations may cause significant error
 Vibrational temperatures:    108.01   269.73   524.41   894.73   920.48
          (Kelvin)            979.52  1023.05  1071.41  1240.02  1328.96
                             1333.17  1448.40  1539.00  1572.61  1602.18
                             1603.71  1648.08  1897.42  1909.22  2019.94
                             2048.03  2127.48  2201.62  2223.84  2226.54
                             2242.26  4348.21  4442.50  4487.84  4661.24
                             4674.12  4691.87  4707.69

 Zero-point correction=                           0.110866 (Hartree/Particle)
 Thermal correction to Energy=                    0.116395
 Thermal correction to Enthalpy=                  0.117339
 Thermal correction to Gibbs Free Energy=         0.081740
 Sum of electronic and zero-point Energies=           -247.943075
 Sum of electronic and thermal Energies=              -247.937546
 Sum of electronic and thermal Enthalpies=            -247.936602
 Sum of electronic and thermal Free Energies=         -247.972200

                     E (Thermal)             CV                S
                      KCal/Mol        Cal/Mol-Kelvin    Cal/Mol-Kelvin
 Total                   73.039             19.728             74.924
 Electronic               0.000              0.000              0.000
 Translational            0.889              2.981             39.092
 Rotational               0.889              2.981             25.835
 Vibrational             71.261             13.767              9.997
 Vibration     1          0.599              1.966              4.016
 Vibration     2          0.632              1.857              2.253
 Vibration     3          0.738              1.545              1.103

 Optimization completed.
    -- Stationary point found.
 Normal termination of Gaussian 16 at Fri Dec  8 01:13:49 2017.
