 Gaussian 16, Revision A.03,
 Gaussian 16:  ES64L-G16RevA.03 25-Dec-2016

 ----------------------------------------------------------------------
 #p b3lyp empiricaldispersion=gd3bj 6-31g scrf=(pcm,solvent=perfluorobe
 nzene) opt freq=noraman
 ----------------------------------------------------------------------

 --------------
 Methyl Pyrrole
 --------------
 Symbolic Z-matrix:
 Charge =  0 Multiplicity = 1

 SCF Done:  E(RB3LYP) =  -249.405865155     A.U. after   12 cycles
 SCF Done:  E(RB3LYP) =  -249.430175898     A.U. after   11 cycles
 SCF Done:  E(RB3LYP) =  -249.432105293     A.U. after   10 cycles
 SCF Done:  E(RB3LYP) =  -249.432019118     A.U. after   10 cycles
 SCF Done:  E(RB3LYP) =  -249.432436051     A.U. after    9 cycles
 SCF Done:  E(RB3LYP) =  -249.432445500     A.U. after    9 cycles
 SCF Done:  E(RB3LYP) =  -249.432450733     A.U. after    9 cycles
 SCF Done:  E(RB3LYP) =  -249.432456095     A.U. after    9 cycles
 SCF Done:  E(RB3LYP) =  -249.432457011     A.U. after    7 cycles
 SCF Done:  E(RB3LYP) =  -249.432460050     A.U. after    9 cycles
 SCF Done:  E(RB3LYP) =  -249.432461233     A.U. after    8 cycles
 SCF Done:  E(RB3LYP) =  -249.432461791     A.U. after    8 cycles
 SCF Done:  E(RB3LYP) =  -249.432461985     A.U. after    7 cycles
 Optimization completed.
    -- Stationary point found.
 Normal termination of Gaussian 16 at Thu Dec  7 16:39:37 2017.

 -----------------------------------------------------------------
 #P Geom=AllCheck Guess=TCheck SCRF=Check GenChk RB3LYP/6-31G Freq
 -----------------------------------------------------------------

 Structure from the checkpoint file:  "/scratch/dhuang9_methyl_pyrrole_isolated_pfb/Gau-112339.chk"
 --------------
 Methyl Pyrrole
 --------------
 Charge =  0 Multiplicity = 1

                         Standard orientation:
 ---------------------------------------------------------------------
 Center     Atomic      Atomic             Coordinates (Angstroms)
 Number     Number       Type             X           Y           Z
 ---------------------------------------------------------------------
      1          6           0        1.497631   -0.715326    0.011754
      2          6           0        0.176696   -1.130009   -0.010753
      3          6           0        1.497671    0.715321    0.011747
      4          1           0        2.363990    1.359479    0.016609
      5          6           0        0.176745    1.129989   -0.010756
      6          1           0       -0.256087    2.117638   -0.017796
      7          6           0       -2.086287    0.000025    0.019582
      8          1           0       -2.468768   -0.886127   -0.492032
      9          1           0       -2.455705   -0.000234    1.051170
     10          1           0       -2.468633    0.886512   -0.491539
     11          7           0       -0.628193   -0.000011   -0.027808
     12          1           0        2.363941   -1.359507    0.016629
     13          1           0       -0.256120   -2.117681   -0.017829
 ---------------------------------------------------------------------

 SCF Done:  E(RB3LYP) =  -249.432461985     A.U. after    1 cycles

 The electronic state is 1-A.
 Alpha  occ. eigenvalues --  -14.37442 -10.22129 -10.19466 -10.19464 -10.15992
 Alpha  occ. eigenvalues --  -10.15959  -0.97588  -0.79588  -0.71555  -0.68705
 Alpha  occ. eigenvalues --   -0.56576  -0.54575  -0.52444  -0.45824  -0.43783
 Alpha  occ. eigenvalues --   -0.41396  -0.40506  -0.37337  -0.36860  -0.36524
 Alpha  occ. eigenvalues --   -0.22670  -0.20506
 Alpha virt. eigenvalues --    0.04224   0.09072   0.10077   0.12569   0.14247
 Alpha virt. eigenvalues --    0.16292   0.17085   0.17538   0.18317   0.18830
 Alpha virt. eigenvalues --    0.24985   0.26791   0.34764   0.38480   0.46066

 Mulliken charges:
               1
     1  C   -0.195802
     2  C    0.085259
     3  C   -0.195758
     4  H    0.122209
     5  C    0.085235
     6  H    0.147113
     7  C   -0.239124
     8  H    0.164990
     9  H    0.168952
    10  H    0.164987
    11  N   -0.577379
    12  H    0.122198
    13  H    0.147120
 Sum of Mulliken charges =   0.00000

 Dipole moment (field-independent basis, Debye):
    X=             -2.4051    Y=              0.0001    Z=              0.0113  Tot=              2.4051
 Quadrupole moment (field-independent basis, Debye-Ang):
   XX=            -31.1591   YY=            -32.7762   ZZ=            -39.4139
   XY=              0.0002   XZ=              0.0693   YZ=              0.0001

  Exact polarizability:  76.138   0.001  66.460  -0.205   0.000  27.628
 Approx polarizability: 100.705   0.002  92.742   0.203   0.000  33.551

                      1                      2                      3
                      A                      A                      A
 Frequencies --     73.1011               206.5095               366.6969
 Red. masses --      1.0480                 3.3428                 2.5685
 Frc consts  --      0.0033                 0.0840                 0.2035
 IR Inten    --      0.0690                 6.1356                 0.9795

                      4                      5                      6
                      A                      A                      A
 Frequencies --    634.3776               637.0947               680.2672
 Red. masses --      3.2719                 3.0467                 4.2587
 Frc consts  --      0.7758                 0.7286                 1.1611
 IR Inten    --     19.1108                 0.0009                 4.8981

                      7                      8                      9
                      A                      A                      A
 Frequencies --    713.0253               747.1459               846.1872
 Red. masses --      1.3016                 1.1973                 1.3065
 Frc consts  --      0.3899                 0.3938                 0.5512
 IR Inten    --      0.0269               109.2604                 0.0733

                     10                     11                     12
                      A                      A                      A
 Frequencies --    904.7941               914.7279              1002.6176
 Red. masses --      1.3139                 5.6259                 2.3164
 Frc consts  --      0.6337                 2.7735                 1.3719
 IR Inten    --      0.0608                 0.0242                13.8335

                     13                     14                     15
                      A                      A                      A
 Frequencies --   1077.7732              1098.2869              1128.8831
 Red. masses --      1.5651                 2.4436                 1.2307
 Frc consts  --      1.0711                 1.7367                 0.9241
 IR Inten    --      5.8450                 4.7143                28.6649

                     16                     17                     18
                      A                      A                      A
 Frequencies --   1131.0140              1170.5494              1328.8209
 Red. masses --      1.1931                 1.3047                 1.2880
 Frc consts  --      0.8992                 1.0533                 1.3400
 IR Inten    --     13.7485                 6.2927                 0.0184

                     19                     20                     21
                      A                      A                      A
 Frequencies --   1329.1718              1403.4428              1439.6856
 Red. masses --      5.2165                 4.1814                 4.2373
 Frc consts  --      5.4299                 4.8524                 5.1746
 IR Inten    --     56.2916                 0.1299                 6.9221

                     22                     23                     24
                      A                      A                      A
 Frequencies --   1480.5886              1531.2286              1549.7184
 Red. masses --      1.3972                 1.0675                 1.1575
 Frc consts  --      1.8046                 1.4747                 1.6378
 IR Inten    --     17.2735                18.8287                 7.8798

                     25                     26                     27
                      A                      A                      A
 Frequencies --   1553.5317              1570.6655              3053.8874
 Red. masses --      2.0494                 3.0184                 1.0372
 Frc consts  --      2.9142                 4.3873                 5.6991
 IR Inten    --     27.9512                 2.9498                67.6685

                     28                     29                     30
                      A                      A                      A
 Frequencies --   3128.6474              3159.7307              3265.5854
 Red. masses --      1.0971                 1.1025                 1.0886
 Frc consts  --      6.3271                 6.4851                 6.8396
 IR Inten    --     27.7192                15.6268                 5.5198

                     31                     32                     33
                      A                      A                      A
 Frequencies --   3278.1628              3295.2051              3304.8544
 Red. masses --      1.0930                 1.0996                 1.1092
 Frc consts  --      6.9206                 7.0349                 7.1376
 IR Inten    --     10.0191                 8.5915                 1.4527

 - Thermochemistry -
 -------------------
 Temperature   298.150 Kelvin.  Pressure   1.00000 Atm.
 Atom     1 has atomic number  6 and mass  12.00000

 Molecular mass:    81.05785 amu.
 Principal axes and moments of inertia in atomic units:
                           1         2         3
     Eigenvalues --   210.32762 512.79512 711.52587
           X            1.00000   0.00000  -0.00048
           Y            0.00000   1.00000   0.00000
           Z            0.00048   0.00000   1.00000
 This molecule is an asymmetric top.
 Rotational symmetry number  1.
 Rotational temperatures (Kelvin)      0.41180     0.16891     0.12173
 Rotational constants (GHZ):           8.58062     3.51942     2.53644
 Zero-point vibrational energy     293120.8 (Joules/Mol)
                                   70.05756 (Kcal/Mol)
 Warning -- explicit consideration of   3 degrees of freedom as
           vibrations may cause significant error
 Vibrational temperatures:    105.18   297.12   527.60   912.73   916.64
          (Kelvin)            978.75  1025.88  1074.98  1217.47  1301.80
                             1316.09  1442.54  1550.68  1580.19  1624.21
                             1627.28  1684.16  1911.88  1912.38  2019.24
                             2071.39  2130.24  2203.10  2229.70  2235.19
                             2259.84  4393.86  4501.43  4546.15  4698.45
                             4716.55  4741.07  4754.95

 Zero-point correction=                           0.111644 (Hartree/Particle)
 Thermal correction to Energy=                    0.117141
 Thermal correction to Enthalpy=                  0.118085
 Thermal correction to Gibbs Free Energy=         0.082552
 Sum of electronic and zero-point Energies=           -249.320818
 Sum of electronic and thermal Energies=              -249.315321
 Sum of electronic and thermal Enthalpies=            -249.314377
 Sum of electronic and thermal Free Energies=         -249.349910

                     E (Thermal)             CV                S
                      KCal/Mol        Cal/Mol-Kelvin    Cal/Mol-Kelvin
 Total                   73.507             19.667             74.785
 Electronic               0.000              0.000              0.000
 Translational            0.889              2.981             39.092
 Rotational               0.889              2.981             25.843
 Vibrational             71.729             13.705              9.851
 Vibration     1          0.599              1.967              4.068
 Vibration     2          0.641              1.831              2.074
 Vibration     3          0.740              1.541              1.094

 Optimization completed.
    -- Stationary point found.
 Normal termination of Gaussian 16 at Thu Dec  7 16:40:22 2017.
