 Gaussian 16, Revision A.03,
 Gaussian 16:  ES64L-G16RevA.03 25-Dec-2016

 ----------------------------------------------------------------------
 #p b3lyp empiricaldispersion=gd3bj 6-31g* scrf=(pcm,solvent=benzene) o
 pt freq=noraman
 ----------------------------------------------------------------------

 --------------
 Methyl Pyrrole
 --------------
 Symbolic Z-matrix:
 Charge =  0 Multiplicity = 1

 SCF Done:  E(RB3LYP) =  -249.469695720     A.U. after   12 cycles
 SCF Done:  E(RB3LYP) =  -249.495612109     A.U. after   11 cycles
 SCF Done:  E(RB3LYP) =  -249.497711628     A.U. after   10 cycles
 SCF Done:  E(RB3LYP) =  -249.497697334     A.U. after   10 cycles
 SCF Done:  E(RB3LYP) =  -249.498019023     A.U. after    9 cycles
 SCF Done:  E(RB3LYP) =  -249.498042490     A.U. after    9 cycles
 SCF Done:  E(RB3LYP) =  -249.498043031     A.U. after    9 cycles
 SCF Done:  E(RB3LYP) =  -249.498053880     A.U. after    9 cycles
 SCF Done:  E(RB3LYP) =  -249.498055375     A.U. after    8 cycles
 SCF Done:  E(RB3LYP) =  -249.498057605     A.U. after    8 cycles
 SCF Done:  E(RB3LYP) =  -249.498058838     A.U. after    8 cycles
 SCF Done:  E(RB3LYP) =  -249.498059542     A.U. after    8 cycles
 SCF Done:  E(RB3LYP) =  -249.498060100     A.U. after    7 cycles
 Optimization completed.
    -- Stationary point found.
 Normal termination of Gaussian 16 at Thu Dec  7 19:16:16 2017.

 --------------------------------------------------------------------
 #P Geom=AllCheck Guess=TCheck SCRF=Check GenChk RB3LYP/6-31G(d) Freq
 --------------------------------------------------------------------

 Structure from the checkpoint file:  "/scratch/dhuang9_methyl_pyrrole_isolated_b3lyp_631gs_b/Gau-27651.chk"
 --------------
 Methyl Pyrrole
 --------------
 Charge =  0 Multiplicity = 1

                         Standard orientation:
 ---------------------------------------------------------------------
 Center     Atomic      Atomic             Coordinates (Angstroms)
 Number     Number       Type             X           Y           Z
 ---------------------------------------------------------------------
      1          6           0        1.492142   -0.712336    0.015759
      2          6           0        0.174179   -1.120430   -0.014198
      3          6           0        1.492060    0.712469    0.015695
      4          1           0        2.356186    1.363211    0.021793
      5          6           0        0.174089    1.120455   -0.014181
      6          1           0       -0.266655    2.107328   -0.022592
      7          6           0       -2.074200   -0.000014    0.025954
      8          1           0       -2.462109   -0.886721   -0.481576
      9          1           0       -2.432360   -0.000339    1.062189
     10          1           0       -2.461883    0.887126   -0.480966
     11          7           0       -0.624698   -0.000102   -0.038881
     12          1           0        2.356323   -1.363172    0.021842
     13          1           0       -0.266233   -2.107580   -0.022689
 ---------------------------------------------------------------------

 SCF Done:  E(RB3LYP) =  -249.498060100     A.U. after    1 cycles

 The electronic state is 1-A.
 Alpha  occ. eigenvalues --  -14.37607 -10.22453 -10.19432 -10.19431 -10.16175
 Alpha  occ. eigenvalues --  -10.16131  -0.97311  -0.79191  -0.71106  -0.68305
 Alpha  occ. eigenvalues --   -0.56324  -0.54304  -0.52147  -0.45698  -0.43553
 Alpha  occ. eigenvalues --   -0.41042  -0.40043  -0.37042  -0.36587  -0.36422
 Alpha  occ. eigenvalues --   -0.22618  -0.20269
 Alpha virt. eigenvalues --    0.04472   0.09069   0.10139   0.12541   0.14438
 Alpha virt. eigenvalues --    0.16567   0.17424   0.17597   0.18298   0.19128
 Alpha virt. eigenvalues --    0.25312   0.26961   0.34653   0.38045   0.46197

 Mulliken charges:
               1
     1  C   -0.199255
     2  C    0.011241
     3  C   -0.199239
     4  H    0.123546
     5  C    0.011201
     6  H    0.142995
     7  C   -0.319732
     8  H    0.174100
     9  H    0.174735
    10  H    0.174104
    11  N   -0.360234
    12  H    0.123545
    13  H    0.142993
 Sum of Mulliken charges =   0.00000

 Dipole moment (field-independent basis, Debye):
    X=             -2.3493    Y=             -0.0001    Z=              0.0069  Tot=              2.3493
 Quadrupole moment (field-independent basis, Debye-Ang):
   XX=            -31.2129   YY=            -32.6609   ZZ=            -39.0031
   XY=             -0.0004   XZ=              0.0869   YZ=              0.0002

  Exact polarizability:  78.659   0.000  68.264  -0.088   0.000  29.903
 Approx polarizability: 103.554   0.000  95.479   0.509   0.000  39.911

                      1                      2                      3
                      A                      A                      A
 Frequencies --     90.4382               188.1768               360.8965
 Red. masses --      1.0488                 3.4117                 2.5741
 Frc consts  --      0.0051                 0.0712                 0.1975
 IR Inten    --      0.0796                 3.8555                 0.7226

                      4                      5                      6
                      A                      A                      A
 Frequencies --    618.6426               625.6131               673.8935
 Red. masses --      4.1420                 3.5649                 1.3088
 Frc consts  --      0.9340                 0.8221                 0.3502
 IR Inten    --      7.8835                 0.0003                 0.0331

                      7                      8                      9
                      A                      A                      A
 Frequencies --    677.4959               730.0585               804.5782
 Red. masses --      4.2467                 1.1530                 1.2510
 Frc consts  --      1.1485                 0.3621                 0.4771
 IR Inten    --      5.7749                95.8036                 0.6172

                     10                     11                     12
                      A                      A                      A
 Frequencies --    859.7056               894.3032               994.1016
 Red. masses --      1.2301                 5.7621                 1.9918
 Frc consts  --      0.5356                 2.7152                 1.1597
 IR Inten    --      0.1108                 0.0003                11.2634

                     13                     14                     15
                      A                      A                      A
 Frequencies --   1074.4175              1091.6126              1116.5969
 Red. masses --      1.4716                 2.2955                 1.2036
 Frc consts  --      1.0009                 1.6117                 0.8841
 IR Inten    --      8.0889                 0.2372                10.4356

                     16                     17                     18
                      A                      A                      A
 Frequencies --   1119.2876              1158.1372              1307.3950
 Red. masses --      1.3378                 1.2971                 1.2864
 Frc consts  --      0.9874                 1.0251                 1.2955
 IR Inten    --     33.5526                 7.3327                 0.3281

                     19                     20                     21
                      A                      A                      A
 Frequencies --   1333.8029              1417.1940              1439.1741
 Red. masses --      4.7686                 4.1780                 4.3872
 Frc consts  --      4.9983                 4.9439                 5.3539
 IR Inten    --     52.2821                 0.1686                 7.9887

                     22                     23                     24
                      A                      A                      A
 Frequencies --   1473.7419              1514.3944              1535.8610
 Red. masses --      1.3065                 1.0504                 1.1258
 Frc consts  --      1.6719                 1.4194                 1.5647
 IR Inten    --     24.4293                13.6930                 6.9284

                     25                     26                     27
                      A                      A                      A
 Frequencies --   1558.5487              1574.6448              3053.9319
 Red. masses --      2.6333                 3.6148                 1.0388
 Frc consts  --      3.7687                 5.2808                 5.7082
 IR Inten    --     39.0636                 1.2788                71.3688

                     28                     29                     30
                      A                      A                      A
 Frequencies --   3123.1702              3153.9609              3245.8833
 Red. masses --      1.0980                 1.1050                 1.0876
 Frc consts  --      6.3100                 6.4764                 6.7513
 IR Inten    --     25.1185                15.3894                 4.4169

                     31                     32                     33
                      A                      A                      A
 Frequencies --   3257.0019              3271.0038              3277.6592
 Red. masses --      1.0924                 1.0991                 1.1065
 Frc consts  --      6.8274                 6.9287                 7.0040
 IR Inten    --      9.3629                 9.8009                 1.4004

 - Thermochemistry -
 -------------------
 Temperature   298.150 Kelvin.  Pressure   1.00000 Atm.
 Atom     1 has atomic number  6 and mass  12.00000

 Molecular mass:    81.05785 amu.
 Principal axes and moments of inertia in atomic units:
                           1         2         3
     Eigenvalues --   207.97545 508.12855 704.34973
           X            1.00000  -0.00001  -0.00073
           Y            0.00001   1.00000   0.00000
           Z            0.00073   0.00000   1.00000
 This molecule is an asymmetric top.
 Rotational symmetry number  1.
 Rotational temperatures (Kelvin)      0.41646     0.17046     0.12297
 Rotational constants (GHZ):           8.67766     3.55174     2.56228
 Zero-point vibrational energy     290784.2 (Joules/Mol)
                                   69.49909 (Kcal/Mol)
 Warning -- explicit consideration of   4 degrees of freedom as
           vibrations may cause significant error
 Vibrational temperatures:    130.12   270.74   519.25   890.09   900.12
          (Kelvin)            969.58   974.77  1050.39  1157.61  1236.92
                             1286.70  1430.29  1545.85  1570.59  1606.53
                             1610.41  1666.30  1881.05  1919.04  2039.03
                             2070.65  2120.39  2178.88  2209.76  2242.40
                             2265.56  4393.93  4493.55  4537.85  4670.10
                             4686.10  4706.24  4715.82

 Zero-point correction=                           0.110754 (Hartree/Particle)
 Thermal correction to Energy=                    0.116320
 Thermal correction to Enthalpy=                  0.117264
 Thermal correction to Gibbs Free Energy=         0.081758
 Sum of electronic and zero-point Energies=           -249.387306
 Sum of electronic and thermal Energies=              -249.381740
 Sum of electronic and thermal Enthalpies=            -249.380796
 Sum of electronic and thermal Free Energies=         -249.416303

                     E (Thermal)             CV                S
                      KCal/Mol        Cal/Mol-Kelvin    Cal/Mol-Kelvin
 Total                   72.992             20.076             74.729
 Electronic               0.000              0.000              0.000
 Translational            0.889              2.981             39.092
 Rotational               0.889              2.981             25.812
 Vibrational             71.214             14.115              9.825
 Vibration     1          0.602              1.956              3.651
 Vibration     2          0.633              1.856              2.246
 Vibration     3          0.735              1.553              1.118
 Vibration     4          0.979              0.993              0.419

 Optimization completed.
    -- Stationary point found.
 Normal termination of Gaussian 16 at Thu Dec  7 19:18:13 2017.
