 Gaussian 16, Revision A.03,
 Gaussian 16:  ES64L-G16RevA.03 25-Dec-2016

 ----------------------------------------------------------------------
 #p b3lyp empiricaldispersion=gd3bj 6-31g* scrf=(pcm,solvent=perfluorob
 enzene) opt freq=noraman
 ----------------------------------------------------------------------

 -----------------
 Solvated Isolated
 -----------------
 Symbolic Z-matrix:
 Charge =  0 Multiplicity = 1

 SCF Done:  E(RB3LYP) =  -402.863110116     A.U. after   14 cycles
 SCF Done:  E(RB3LYP) =  -403.032192460     A.U. after   12 cycles
 SCF Done:  E(RB3LYP) =  -403.140497092     A.U. after   13 cycles
 SCF Done:  E(RB3LYP) =  -403.159493614     A.U. after   12 cycles
 SCF Done:  E(RB3LYP) =  -403.164504530     A.U. after   11 cycles
 SCF Done:  E(RB3LYP) =  -403.165539603     A.U. after   10 cycles
 SCF Done:  E(RB3LYP) =  -403.165600683     A.U. after   10 cycles
 SCF Done:  E(RB3LYP) =  -403.165685452     A.U. after   10 cycles
 SCF Done:  E(RB3LYP) =  -403.165758465     A.U. after    9 cycles
 SCF Done:  E(RB3LYP) =  -403.165781575     A.U. after    9 cycles
 SCF Done:  E(RB3LYP) =  -403.166260528     A.U. after   12 cycles
 SCF Done:  E(RB3LYP) =  -403.166370006     A.U. after    9 cycles
 SCF Done:  E(RB3LYP) =  -403.166492162     A.U. after   10 cycles
 SCF Done:  E(RB3LYP) =  -403.166506193     A.U. after    8 cycles
 SCF Done:  E(RB3LYP) =  -403.166609009     A.U. after   10 cycles
 SCF Done:  E(RB3LYP) =  -403.166668386     A.U. after   10 cycles
 SCF Done:  E(RB3LYP) =  -403.166674577     A.U. after    8 cycles
 SCF Done:  E(RB3LYP) =  -403.166680829     A.U. after    9 cycles
 SCF Done:  E(RB3LYP) =  -403.166681426     A.U. after    8 cycles
 Optimization completed.
    -- Stationary point found.
 Normal termination of Gaussian 16 at Thu Dec  7 02:20:02 2017.

 --------------------------------------------------------------------
 #P Geom=AllCheck Guess=TCheck SCRF=Check GenChk RB3LYP/6-31G(d) Freq
 --------------------------------------------------------------------

 Structure from the checkpoint file:  "/scratch/dhuang9_methyl_indole_isolated_b3lyp_631gs_pfb/Gau-66285.chk"
 -----------------
 Solvated Isolated
 -----------------
 Charge =  0 Multiplicity = 1

                         Standard orientation:
 ---------------------------------------------------------------------
 Center     Atomic      Atomic             Coordinates (Angstroms)
 Number     Number       Type             X           Y           Z
 ---------------------------------------------------------------------
      1          6           0        0.388766    0.987330   -0.000029
      2          6           0       -0.151679   -0.331843   -0.000019
      3          6           0        0.657876   -1.472609   -0.000021
      4          6           0        2.035483   -1.281338   -0.000037
      5          6           0        2.592887    0.014064    0.000004
      6          6           0        1.785007    1.144613    0.000051
      7          6           0       -0.728268    1.890087   -0.000112
      8          1           0        0.229762   -2.470722    0.000154
      9          1           0        2.693719   -2.145508   -0.000058
     10          1           0        3.673507    0.126138   -0.000007
     11          1           0        2.224865    2.138483    0.000116
     12          1           0       -0.692159    2.970601   -0.000338
     13          6           0       -1.863251    1.120374    0.000033
     14          1           0       -2.904489    1.412810    0.000187
     15          6           0       -2.453612   -1.336946   -0.000090
     16          1           0       -2.313631   -1.960446   -0.890526
     17          1           0       -2.314574   -1.960707    0.890285
     18          1           0       -3.474669   -0.951034   -0.000679
     19          7           0       -1.528797   -0.223146    0.000312
 ---------------------------------------------------------------------

 SCF Done:  E(RB3LYP) =  -403.166681426     A.U. after    1 cycles

 The electronic state is 1-A.
 Alpha  occ. eigenvalues --  -14.37774 -10.22798 -10.21320 -10.20880 -10.18338
 Alpha  occ. eigenvalues --  -10.17898 -10.17866 -10.17816 -10.17455 -10.16911
 Alpha  occ. eigenvalues --   -0.98092  -0.83564  -0.79191  -0.73989  -0.71356
 Alpha  occ. eigenvalues --   -0.68342  -0.61110  -0.57880  -0.56259  -0.51377
 Alpha  occ. eigenvalues --   -0.48051  -0.46483  -0.46292  -0.43729  -0.42076
 Alpha  occ. eigenvalues --   -0.41213  -0.39549  -0.38547  -0.38268  -0.34944
 Alpha  occ. eigenvalues --   -0.32921  -0.32148  -0.26816  -0.21528  -0.19657
 Alpha virt. eigenvalues --   -0.00443   0.03083   0.07670   0.09357   0.11585
 Alpha virt. eigenvalues --    0.11910   0.15212   0.15300   0.16387   0.16677
 Alpha virt. eigenvalues --    0.17571   0.19202   0.19252   0.19792   0.25083

 Mulliken charges:
               1
     1  C    0.111426
     2  C    0.295034
     3  C   -0.173928
     4  C   -0.161437
     5  C   -0.145034
     6  C   -0.216704
     7  C   -0.250557
     8  H    0.129854
     9  H    0.125604
    10  H    0.122984
    11  H    0.127807
    12  H    0.132015
    13  C    0.032863
    14  H    0.155108
    15  C   -0.324043
    16  H    0.175204
    17  H    0.175213
    18  H    0.174620
    19  N   -0.486029
 Sum of Mulliken charges =   0.00000

 Dipole moment (field-independent basis, Debye):
    X=             -2.4483    Y=             -1.1068    Z=             -0.0004  Tot=              2.6868
 Quadrupole moment (field-independent basis, Debye-Ang):
   XX=            -48.8078   YY=            -52.5075   ZZ=            -62.5137
   XY=              2.1297   XZ=              0.0008   YZ=             -0.0004

  Exact polarizability: 154.031  -5.418 124.092  -0.001  -0.002  41.783
 Approx polarizability: 221.210  -8.142 185.193  -0.003  -0.003  59.410

                      1                      2                      3
                      A                      A                      A
 Frequencies --     72.1628               132.5321               221.5450
 Red. masses --      1.1699                 2.3686                 4.0161
 Frc consts  --      0.0036                 0.0245                 0.1161
 IR Inten    --      0.1993                 3.6931                 2.4336

                      4                      5                      6
                      A                      A                      A
 Frequencies --    250.4878               266.0249               434.9629
 Red. masses --      2.9914                 4.0972                 3.0234
 Frc consts  --      0.1106                 0.1708                 0.3370
 IR Inten    --      0.9475                 0.1082                 4.6757

                      7                      8                      9
                      A                      A                      A
 Frequencies --    478.5095               547.6019               582.8333
 Red. masses --      3.3895                 5.6385                 3.9754
 Frc consts  --      0.4573                 0.9962                 0.7956
 IR Inten    --      4.0205                 1.2812                 0.2781

                     10                     11                     12
                      A                      A                      A
 Frequencies --    584.0378               600.5228               721.1741
 Red. masses --      5.7824                 3.6693                 1.2899
 Frc consts  --      1.1621                 0.7796                 0.3953
 IR Inten    --      5.4103                 0.1258                24.3338

                     13                     14                     15
                      A                      A                      A
 Frequencies --    727.5755               754.2692               780.7584
 Red. masses --      5.3017                 1.2884                 3.1330
 Frc consts  --      1.6536                 0.4319                 1.1253
 IR Inten    --      5.7441                79.3019                 4.5442

                     16                     17                     18
                      A                      A                      A
 Frequencies --    786.7332               841.8702               858.6639
 Red. masses --      4.7499                 1.2872                 1.5546
 Frc consts  --      1.7322                 0.5375                 0.6753
 IR Inten    --      4.0036                 0.4533                 0.6106

                     19                     20                     21
                      A                      A                      A
 Frequencies --    899.4372               922.0709               966.5685
 Red. masses --      4.9458                 1.3382                 1.2256
 Frc consts  --      2.3574                 0.6703                 0.6747
 IR Inten    --      2.0803                 2.0753                 0.0165

                     22                     23                     24
                      A                      A                      A
 Frequencies --   1032.1206              1045.7663              1109.4388
 Red. masses --      1.9064                 2.2402                 1.2498
 Frc consts  --      1.1965                 1.4435                 0.9063
 IR Inten    --      6.0989                12.2865                19.1696

                     25                     26                     27
                      A                      A                      A
 Frequencies --   1126.3286              1160.9767              1167.5052
 Red. masses --      2.2069                 1.2914                 1.5284
 Frc consts  --      1.6495                 1.0256                 1.2275
 IR Inten    --     10.3932                 0.2145                 3.8549

                     28                     29                     30
                      A                      A                      A
 Frequencies --   1186.5146              1237.9032              1280.8132
 Red. masses --      1.1823                 1.9468                 1.6613
 Frc consts  --      0.9806                 1.7577                 1.6057
 IR Inten    --      4.4355                 2.6344                30.0895

                     31                     32                     33
                      A                      A                      A
 Frequencies --   1360.7332              1376.3359              1403.3296
 Red. masses --      2.1984                 5.8607                 2.8719
 Frc consts  --      2.3983                 6.5411                 3.3323
 IR Inten    --     43.1439                37.6549                 7.6780

                     34                     35                     36
                      A                      A                      A
 Frequencies --   1435.9536              1474.9820              1505.8836
 Red. masses --      4.1906                 1.3285                 1.0407
 Frc consts  --      5.0910                 1.7029                 1.3904
 IR Inten    --      1.4923                36.1191                 8.3485

                     37                     38                     39
                      A                      A                      A
 Frequencies --   1512.6731              1534.2394              1545.1183
 Red. masses --      2.3172                 2.5319                 1.1890
 Frc consts  --      3.1240                 3.5115                 1.6724
 IR Inten    --     45.9802                18.8851                17.6082

                     40                     41                     42
                      A                      A                      A
 Frequencies --   1569.1054              1629.6163              1672.0663
 Red. masses --      4.0064                 5.9086                 6.4883
 Frc consts  --      5.8118                 9.2450                10.6878
 IR Inten    --     29.1288                 0.7022                 5.5632

                     43                     44                     45
                      A                      A                      A
 Frequencies --   3048.7034              3103.3689              3158.0604
 Red. masses --      1.0352                 1.1058                 1.1011
 Frc consts  --      5.6689                 6.2749                 6.4702
 IR Inten    --     73.5390                28.3137                12.0301

                     46                     47                     48
                      A                      A                      A
 Frequencies --   3180.5889              3189.5997              3199.5313
 Red. masses --      1.0851                 1.0883                 1.0933
 Frc consts  --      6.4672                 6.5236                 6.5941
 IR Inten    --      1.1544                10.3450                48.3971

                     49                     50                     51
                      A                      A                      A
 Frequencies --   3209.6227              3254.7295              3273.2183
 Red. masses --      1.0968                 1.0894                 1.1038
 Frc consts  --      6.6573                 6.7994                 6.9677
 IR Inten    --     29.3571                 1.6181                 7.8026

 - Thermochemistry -
 -------------------
 Temperature   298.150 Kelvin.  Pressure   1.00000 Atm.
 Atom     1 has atomic number  6 and mass  12.00000

 Molecular mass:   131.07350 amu.
 Principal axes and moments of inertia in atomic units:
                           1         2         3
     Eigenvalues --   681.832531387.285152057.70416
           X            0.99966   0.02589   0.00000
           Y           -0.02589   0.99966   0.00000
           Z            0.00000   0.00000   1.00000
 This molecule is an asymmetric top.
 Rotational symmetry number  1.
 Warning -- assumption of classical behavior for rotation
           may cause significant error
 Rotational temperatures (Kelvin)      0.12703     0.06243     0.04209
 Rotational constants (GHZ):           2.64690     1.30092     0.87707
 Zero-point vibrational energy     415194.9 (Joules/Mol)
                                   99.23397 (Kcal/Mol)
 Warning -- explicit consideration of  11 degrees of freedom as
           vibrations may cause significant error
 Vibrational temperatures:    103.83   190.68   318.75   360.40   382.75
          (Kelvin)            625.81   688.47   787.88   838.57   840.30
                              864.02  1037.61  1046.82  1085.23  1123.34
                             1131.93  1211.26  1235.43  1294.09  1326.65
                             1390.68  1484.99  1504.62  1596.23  1620.54
                             1670.39  1679.78  1707.13  1781.07  1842.80
                             1957.79  1980.24  2019.08  2066.02  2122.17
                             2166.63  2176.40  2207.43  2223.08  2257.59
                             2344.65  2405.73  4386.40  4465.06  4543.74
                             4576.16  4589.12  4603.41  4617.93  4682.83
                             4709.43

 Zero-point correction=                           0.158139 (Hartree/Particle)
 Thermal correction to Energy=                    0.166117
 Thermal correction to Enthalpy=                  0.167061
 Thermal correction to Gibbs Free Energy=         0.125258
 Sum of electronic and zero-point Energies=           -403.008542
 Sum of electronic and thermal Energies=              -403.000564
 Sum of electronic and thermal Enthalpies=            -402.999620
 Sum of electronic and thermal Free Energies=         -403.041424

                     E (Thermal)             CV                S
                      KCal/Mol        Cal/Mol-Kelvin    Cal/Mol-Kelvin
 Total                  104.240             31.492             87.984
 Electronic               0.000              0.000              0.000
 Translational            0.889              2.981             40.525
 Rotational               0.889              2.981             29.055
 Vibrational            102.463             25.530             18.404
 Vibration     1          0.598              1.967              4.093
 Vibration     2          0.613              1.921              2.909
 Vibration     3          0.648              1.808              1.946
 Vibration     4          0.663              1.762              1.727
 Vibration     5          0.672              1.735              1.622
 Vibration     6          0.796              1.394              0.843
 Vibration     7          0.835              1.298              0.714
 Vibration     8          0.903              1.145              0.549
 Vibration     9          0.940              1.068              0.480
 Vibration    10          0.941              1.066              0.478
 Vibration    11          0.959              1.031              0.449

 Optimization completed.
    -- Stationary point found.
 Normal termination of Gaussian 16 at Thu Dec  7 02:24:13 2017.
