 Gaussian 16, Revision A.03,
 Gaussian 16:  ES64L-G16RevA.03 25-Dec-2016

 ----------------------------------------------------------------------
 #p b3lyp empiricaldispersion=gd3bj 6-31g scrf=(pcm,solvent=perfluorobe
 nzene) opt freq=noraman
 ----------------------------------------------------------------------

 -----------------
 Solvated Isolated
 -----------------
 Symbolic Z-matrix:
 Charge =  0 Multiplicity = 1

 SCF Done:  E(RB3LYP) =  -402.750400578     A.U. after   14 cycles
 SCF Done:  E(RB3LYP) =  -402.926934968     A.U. after   12 cycles
 SCF Done:  E(RB3LYP) =  -403.039425596     A.U. after   13 cycles
 SCF Done:  E(RB3LYP) =  -403.058984520     A.U. after   12 cycles
 SCF Done:  E(RB3LYP) =  -403.064340324     A.U. after   11 cycles
 SCF Done:  E(RB3LYP) =  -403.065531024     A.U. after   11 cycles
 SCF Done:  E(RB3LYP) =  -403.065584354     A.U. after   10 cycles
 SCF Done:  E(RB3LYP) =  -403.065679404     A.U. after   10 cycles
 SCF Done:  E(RB3LYP) =  -403.065747604     A.U. after    9 cycles
 SCF Done:  E(RB3LYP) =  -403.065764890     A.U. after    9 cycles
 SCF Done:  E(RB3LYP) =  -403.066474447     A.U. after   10 cycles
 SCF Done:  E(RB3LYP) =  -403.066525045     A.U. after    9 cycles
 SCF Done:  E(RB3LYP) =  -403.066542871     A.U. after    9 cycles
 SCF Done:  E(RB3LYP) =  -403.066559309     A.U. after    9 cycles
 SCF Done:  E(RB3LYP) =  -403.066580794     A.U. after    9 cycles
 SCF Done:  E(RB3LYP) =  -403.066591203     A.U. after    9 cycles
 SCF Done:  E(RB3LYP) =  -403.066602143     A.U. after    9 cycles
 SCF Done:  E(RB3LYP) =  -403.066602449     A.U. after    7 cycles
 SCF Done:  E(RB3LYP) =  -403.066602478     A.U. after    7 cycles
 Optimization completed.
    -- Stationary point found.
 Normal termination of Gaussian 16 at Tue Nov 28 17:55:40 2017.

 -----------------------------------------------------------------
 #P Geom=AllCheck Guess=TCheck SCRF=Check GenChk RB3LYP/6-31G Freq
 -----------------------------------------------------------------

 Structure from the checkpoint file:  "/scratch/dhuang9_methyl_indole_isolated_b3lyp_631g_pfb/Gau-182083.chk"
 -----------------
 Solvated Isolated
 -----------------
 Charge =  0 Multiplicity = 1

                         Standard orientation:
 ---------------------------------------------------------------------
 Center     Atomic      Atomic             Coordinates (Angstroms)
 Number     Number       Type             X           Y           Z
 ---------------------------------------------------------------------
      1          6           0        0.391667    0.986852    0.000005
      2          6           0       -0.149622   -0.337442    0.000014
      3          6           0        0.663238   -1.477938    0.000017
      4          6           0        2.044506   -1.284109   -0.000005
      5          6           0        2.601495    0.015177   -0.000007
      6          6           0        1.789280    1.147800   -0.000006
      7          6           0       -0.727868    1.895112   -0.000007
      8          1           0        0.238816   -2.476272    0.000028
      9          1           0        2.703950   -2.145867   -0.000011
     10          1           0        3.680812    0.128039   -0.000019
     11          1           0        2.227587    2.140862   -0.000015
     12          1           0       -0.683080    2.973097    0.000000
     13          6           0       -1.871799    1.130381    0.000008
     14          1           0       -2.908324    1.429815    0.000004
     15          6           0       -2.468058   -1.341442   -0.000019
     16          1           0       -2.330756   -1.965229   -0.890018
     17          1           0       -2.330836   -1.965189    0.890019
     18          1           0       -3.488149   -0.954112   -0.000091
     19          7           0       -1.535295   -0.224499    0.000015
 ---------------------------------------------------------------------

 SCF Done:  E(RB3LYP) =  -403.066602478     A.U. after    1 cycles

 The electronic state is 1-A.
 Alpha  occ. eigenvalues --  -14.37623 -10.22401 -10.21298 -10.21107 -10.18219
 Alpha  occ. eigenvalues --  -10.17899 -10.17747 -10.17718 -10.17293 -10.16801
 Alpha  occ. eigenvalues --   -0.98352  -0.84056  -0.79629  -0.74451  -0.71844
 Alpha  occ. eigenvalues --   -0.68758  -0.61547  -0.58306  -0.56660  -0.51674
 Alpha  occ. eigenvalues --   -0.48381  -0.46939  -0.46358  -0.43995  -0.42534
 Alpha  occ. eigenvalues --   -0.41714  -0.40007  -0.38720  -0.38631  -0.35286
 Alpha  occ. eigenvalues --   -0.33218  -0.32252  -0.27045  -0.21752  -0.19783
 Alpha virt. eigenvalues --   -0.00506   0.03067   0.07578   0.09355   0.11687
 Alpha virt. eigenvalues --    0.11969   0.15124   0.15299   0.16319   0.16399
 Alpha virt. eigenvalues --    0.17461   0.18961   0.19098   0.19733   0.24897

 Mulliken charges:
               1
     1  C   -0.011924
     2  C    0.271902
     3  C   -0.092139
     4  C   -0.163451
     5  C   -0.141553
     6  C   -0.158533
     7  C   -0.167193
     8  H    0.130276
     9  H    0.119938
    10  H    0.117441
    11  H    0.127040
    12  H    0.133398
    13  C    0.087184
    14  H    0.158021
    15  C   -0.239582
    16  H    0.168361
    17  H    0.168361
    18  H    0.163394
    19  N   -0.670940
 Sum of Mulliken charges =   0.00000

 Dipole moment (field-independent basis, Debye):
    X=             -2.4409    Y=             -1.1619    Z=             -0.0001  Tot=              2.7033
 Quadrupole moment (field-independent basis, Debye-Ang):
   XX=            -48.8501   YY=            -52.6152   ZZ=            -63.1692
   XY=              2.2766   XZ=              0.0001   YZ=              0.0000

  Exact polarizability: 151.768  -5.399 122.427   0.000   0.000  38.605
 Approx polarizability: 215.909  -7.421 180.335  -0.001  -0.001  48.642

                      1                      2                      3
                      A                      A                      A
 Frequencies --     77.9117               140.2417               223.5174
 Red. masses --      1.0802                 2.7802                 4.0125
 Frc consts  --      0.0039                 0.0322                 0.1181
 IR Inten    --      0.1132                 5.2281                 3.3061

                      4                      5                      6
                      A                      A                      A
 Frequencies --    253.3982               281.1363               442.6135
 Red. masses --      2.9980                 4.0714                 2.8851
 Frc consts  --      0.1134                 0.1896                 0.3330
 IR Inten    --      1.1617                 1.1366                 6.5952

                      7                      8                      9
                      A                      A                      A
 Frequencies --    487.4220               556.1107               595.5661
 Red. masses --      3.3667                 5.5455                 5.8022
 Frc consts  --      0.4713                 1.0104                 1.2126
 IR Inten    --      4.4054                 1.2911                 5.2639

                     10                     11                     12
                      A                      A                      A
 Frequencies --    596.7916               618.1381               735.4810
 Red. masses --      3.6322                 3.2221                 5.4425
 Frc consts  --      0.7622                 0.7254                 1.7346
 IR Inten    --      0.8778                 0.4810                 3.9421

                     13                     14                     15
                      A                      A                      A
 Frequencies --    740.4620               773.4151               792.2893
 Red. masses --      1.3748                 1.3215                 4.8635
 Frc consts  --      0.4441                 0.4657                 1.7987
 IR Inten    --     20.5413               105.5901                 4.1761

                     16                     17                     18
                      A                      A                      A
 Frequencies --    795.7447               879.4108               887.7423
 Red. masses --      2.6426                 1.3942                 1.4581
 Frc consts  --      0.9859                 0.6353                 0.6770
 IR Inten    --     11.8774                 0.0009                 1.8784

                     19                     20                     21
                      A                      A                      A
 Frequencies --    917.2739               957.0668              1003.3379
 Red. masses --      4.9529                 1.3703                 1.2876
 Frc consts  --      2.4553                 0.7395                 0.7637
 IR Inten    --      2.2094                 3.4406                 0.0126

                     22                     23                     24
                      A                      A                      A
 Frequencies --   1036.3632              1052.1727              1126.0741
 Red. masses --      2.0080                 2.3432                 1.2546
 Frc consts  --      1.2707                 1.5284                 0.9373
 IR Inten    --      7.3997                12.3085                19.9029

                     25                     26                     27
                      A                      A                      A
 Frequencies --   1139.5402              1172.5885              1182.5888
 Red. masses --      2.4385                 1.2991                 1.5836
 Frc consts  --      1.8657                 1.0524                 1.3048
 IR Inten    --     13.4607                 0.2017                 3.4008

                     28                     29                     30
                      A                      A                      A
 Frequencies --   1213.0718              1253.7137              1298.0053
 Red. masses --      1.1803                 1.9150                 1.7312
 Frc consts  --      1.0234                 1.7734                 1.7186
 IR Inten    --      3.8310                 2.1004                38.0304

                     31                     32                     33
                      A                      A                      A
 Frequencies --   1368.4314              1378.8151              1412.8914
 Red. masses --      3.1691                 3.3913                 2.4208
 Frc consts  --      3.4965                 3.7986                 2.8473
 IR Inten    --     48.7249                28.3119                 4.3817

                     34                     35                     36
                      A                      A                      A
 Frequencies --   1435.7506              1486.0130              1523.0355
 Red. masses --      4.2059                 1.4715                 2.1192
 Frc consts  --      5.1082                 1.9145                 2.8962
 IR Inten    --      0.1226                34.3669                36.7687

                     37                     38                     39
                      A                      A                      A
 Frequencies --   1524.4600              1539.9052              1557.4479
 Red. masses --      1.0438                 2.2552                 1.2056
 Frc consts  --      1.4292                 3.1508                 1.7230
 IR Inten    --     12.0596                25.1534                21.2499

                     40                     41                     42
                      A                      A                      A
 Frequencies --   1568.3461              1631.0623              1675.0508
 Red. masses --      2.9817                 5.7577                 6.7027
 Frc consts  --      4.3211                 9.0249                11.0804
 IR Inten    --     16.2793                 0.7664                 3.8439

                     43                     44                     45
                      A                      A                      A
 Frequencies --   3047.6426              3109.0462              3163.0994
 Red. masses --      1.0347                 1.1030                 1.0991
 Frc consts  --      5.6625                 6.2819                 6.4791
 IR Inten    --     71.8416                31.6688                12.8308

                     46                     47                     48
                      A                      A                      A
 Frequencies --   3189.8753              3199.5542              3211.0059
 Red. masses --      1.0853                 1.0884                 1.0940
 Frc consts  --      6.5063                 6.5649                 6.6459
 IR Inten    --      0.6465                11.0082                51.9652

                     49                     50                     51
                      A                      A                      A
 Frequencies --   3223.1357              3274.9756              3297.7902
 Red. masses --      1.0983                 1.0901                 1.1056
 Frc consts  --      6.7224                 6.8889                 7.0841
 IR Inten    --     33.0999                 2.5106                 8.0667

 - Thermochemistry -
 -------------------
 Temperature   298.150 Kelvin.  Pressure   1.00000 Atm.
 Atom     1 has atomic number  6 and mass  12.00000

 Molecular mass:   131.07350 amu.
 Principal axes and moments of inertia in atomic units:
                           1         2         3
     Eigenvalues --   686.085071398.573282073.25478
           X            0.99966   0.02590   0.00000
           Y           -0.02590   0.99966   0.00000
           Z            0.00000   0.00000   1.00000
 This molecule is an asymmetric top.
 Rotational symmetry number  1.
 Warning -- assumption of classical behavior for rotation
           may cause significant error
 Rotational temperatures (Kelvin)      0.12624     0.06193     0.04178
 Rotational constants (GHZ):           2.63049     1.29042     0.87049
 Zero-point vibrational energy     418971.3 (Joules/Mol)
                                  100.13653 (Kcal/Mol)
 Warning -- explicit consideration of  11 degrees of freedom as
           vibrations may cause significant error
 Vibrational temperatures:    112.10   201.78   321.59   364.58   404.49
          (Kelvin)            636.82   701.29   800.12   856.89   858.65
                              889.36  1058.19  1065.36  1112.77  1139.93
                             1144.90  1265.28  1277.26  1319.75  1377.01
                             1443.58  1491.10  1513.84  1620.17  1639.54
                             1687.09  1701.48  1745.34  1803.81  1867.54
                             1968.87  1983.81  2032.84  2065.72  2138.04
                             2191.31  2193.36  2215.58  2240.82  2256.50
                             2346.73  2410.02  4384.88  4473.22  4550.99
                             4589.52  4603.44  4619.92  4637.37  4711.96
                             4744.78

 Zero-point correction=                           0.159578 (Hartree/Particle)
 Thermal correction to Energy=                    0.167396
 Thermal correction to Enthalpy=                  0.168340
 Thermal correction to Gibbs Free Energy=         0.126862
 Sum of electronic and zero-point Energies=           -402.907025
 Sum of electronic and thermal Energies=              -402.899206
 Sum of electronic and thermal Enthalpies=            -402.898262
 Sum of electronic and thermal Free Energies=         -402.939741

                     E (Thermal)             CV                S
                      KCal/Mol        Cal/Mol-Kelvin    Cal/Mol-Kelvin
 Total                  105.043             30.863             87.299
 Electronic               0.000              0.000              0.000
 Translational            0.889              2.981             40.525
 Rotational               0.889              2.981             29.077
 Vibrational            103.265             24.902             17.697
 Vibration     1          0.599              1.964              3.943
 Vibration     2          0.615              1.913              2.801
 Vibration     3          0.649              1.805              1.930
 Vibration     4          0.665              1.757              1.707
 Vibration     5          0.681              1.709              1.527
 Vibration     6          0.802              1.377              0.818
 Vibration     7          0.843              1.278              0.690
 Vibration     8          0.912              1.126              0.532
 Vibration     9          0.953              1.041              0.457
 Vibration    10          0.955              1.039              0.455
 Vibration    11          0.978              0.994              0.419

 Optimization completed.
    -- Stationary point found.
 Normal termination of Gaussian 16 at Tue Nov 28 17:57:56 2017.
