 Gaussian 16, Revision A.03,
 Gaussian 16:  ES64L-G16RevA.03 25-Dec-2016

 ----------------------------------------------------------------------
 #p b3lyp empiricaldispersion=gd3bj 6-31g scrf=(pcm,solvent=benzene) op
 t freq=noraman
 ----------------------------------------------------------------------

 --------------
 Methyl Pyrrole
 --------------
 Symbolic Z-matrix:
 Charge =  0 Multiplicity = 1

 SCF Done:  E(RB3LYP) =  -249.406119597     A.U. after   12 cycles
 SCF Done:  E(RB3LYP) =  -249.430433556     A.U. after   11 cycles
 SCF Done:  E(RB3LYP) =  -249.432369417     A.U. after   10 cycles
 SCF Done:  E(RB3LYP) =  -249.432282576     A.U. after   10 cycles
 SCF Done:  E(RB3LYP) =  -249.432699912     A.U. after    9 cycles
 SCF Done:  E(RB3LYP) =  -249.432709182     A.U. after    9 cycles
 SCF Done:  E(RB3LYP) =  -249.432714440     A.U. after    9 cycles
 SCF Done:  E(RB3LYP) =  -249.432719731     A.U. after    9 cycles
 SCF Done:  E(RB3LYP) =  -249.432720637     A.U. after    7 cycles
 SCF Done:  E(RB3LYP) =  -249.432723711     A.U. after    9 cycles
 SCF Done:  E(RB3LYP) =  -249.432724887     A.U. after    8 cycles
 SCF Done:  E(RB3LYP) =  -249.432725439     A.U. after    8 cycles
 SCF Done:  E(RB3LYP) =  -249.432725624     A.U. after    7 cycles
 Optimization completed.
    -- Stationary point found.
 Normal termination of Gaussian 16 at Thu Dec  7 16:41:12 2017.

 -----------------------------------------------------------------
 #P Geom=AllCheck Guess=TCheck SCRF=Check GenChk RB3LYP/6-31G Freq
 -----------------------------------------------------------------

 Structure from the checkpoint file:  "/scratch/dhuang9_methyl_pyrrole_isolated_b/Gau-112239.chk"
 --------------
 Methyl Pyrrole
 --------------
 Charge =  0 Multiplicity = 1

                         Standard orientation:
 ---------------------------------------------------------------------
 Center     Atomic      Atomic             Coordinates (Angstroms)
 Number     Number       Type             X           Y           Z
 ---------------------------------------------------------------------
      1          6           0        1.497752   -0.715362    0.011686
      2          6           0        0.176662   -1.130014   -0.010690
      3          6           0        1.497791    0.715356    0.011680
      4          1           0        2.364093    1.359591    0.016513
      5          6           0        0.176708    1.129995   -0.010692
      6          1           0       -0.256218    2.117606   -0.017711
      7          6           0       -2.086495    0.000024    0.019459
      8          1           0       -2.468768   -0.886193   -0.492087
      9          1           0       -2.455812   -0.000191    1.051008
     10          1           0       -2.468645    0.886526   -0.491673
     11          7           0       -0.628136   -0.000010   -0.027643
     12          1           0        2.364046   -1.359617    0.016532
     13          1           0       -0.256253   -2.117645   -0.017740
 ---------------------------------------------------------------------

 SCF Done:  E(RB3LYP) =  -249.432725624     A.U. after    1 cycles

 The electronic state is 1-A.
 Alpha  occ. eigenvalues --  -14.37468 -10.22086 -10.19497 -10.19495 -10.16034
 Alpha  occ. eigenvalues --  -10.16002  -0.97611  -0.79597  -0.71584  -0.68706
 Alpha  occ. eigenvalues --   -0.56605  -0.54590  -0.52451  -0.45806  -0.43772
 Alpha  occ. eigenvalues --   -0.41411  -0.40513  -0.37355  -0.36893  -0.36544
 Alpha  occ. eigenvalues --   -0.22712  -0.20551
 Alpha virt. eigenvalues --    0.04193   0.09022   0.10123   0.12584   0.14291
 Alpha virt. eigenvalues --    0.16304   0.17115   0.17564   0.18290   0.18840
 Alpha virt. eigenvalues --    0.24962   0.26772   0.34733   0.38470   0.46038

 Mulliken charges:
               1
     1  C   -0.197380
     2  C    0.084214
     3  C   -0.197337
     4  H    0.122741
     5  C    0.084191
     6  H    0.148312
     7  C   -0.239445
     8  H    0.165724
     9  H    0.169492
    10  H    0.165721
    11  N   -0.577283
    12  H    0.122730
    13  H    0.148319
 Sum of Mulliken charges =   0.00000

 Dipole moment (field-independent basis, Debye):
    X=             -2.4371    Y=              0.0001    Z=              0.0111  Tot=              2.4372
 Quadrupole moment (field-independent basis, Debye-Ang):
   XX=            -31.1303   YY=            -32.7489   ZZ=            -39.4170
   XY=              0.0002   XZ=              0.0693   YZ=              0.0001

  Exact polarizability:  77.052   0.001  67.366  -0.207   0.000  27.866
 Approx polarizability: 100.667   0.002  92.725   0.200   0.000  33.548

                      1                      2                      3
                      A                      A                      A
 Frequencies --     73.0610               206.8592               366.6903
 Red. masses --      1.0480                 3.3430                 2.5691
 Frc consts  --      0.0033                 0.0843                 0.2035
 IR Inten    --      0.0697                 6.2302                 1.0123

                      4                      5                      6
                      A                      A                      A
 Frequencies --    634.4935               637.1401               679.9661
 Red. masses --      3.2663                 3.0505                 4.2607
 Frc consts  --      0.7748                 0.7296                 1.1607
 IR Inten    --     19.5693                 0.0009                 4.9616

                      7                      8                      9
                      A                      A                      A
 Frequencies --    713.6577               747.1539               846.3996
 Red. masses --      1.3014                 1.1971                 1.3074
 Frc consts  --      0.3905                 0.3937                 0.5518
 IR Inten    --      0.0269               111.0055                 0.1041

                     10                     11                     12
                      A                      A                      A
 Frequencies --    904.6154               914.6622              1002.4388
 Red. masses --      1.3133                 5.6288                 2.3121
 Frc consts  --      0.6332                 2.7745                 1.3689
 IR Inten    --      0.0618                 0.0279                14.1922

                     13                     14                     15
                      A                      A                      A
 Frequencies --   1077.7841              1098.0118              1128.5711
 Red. masses --      1.5644                 2.4457                 1.2316
 Frc consts  --      1.0707                 1.7373                 0.9242
 IR Inten    --      6.0732                 4.9131                29.4687

                     16                     17                     18
                      A                      A                      A
 Frequencies --   1130.7821              1170.5778              1328.6973
 Red. masses --      1.1937                 1.3049                 5.2154
 Frc consts  --      0.8993                 1.0535                 5.4249
 IR Inten    --     14.0227                 6.3583                57.1090

                     19                     20                     21
                      A                      A                      A
 Frequencies --   1328.7641              1403.1931              1439.4097
 Red. masses --      1.2886                 4.1796                 4.2372
 Frc consts  --      1.3405                 4.8486                 5.1725
 IR Inten    --      0.0536                 0.1482                 7.0786

                     22                     23                     24
                      A                      A                      A
 Frequencies --   1480.4362              1530.7603              1549.1219
 Red. masses --      1.3971                 1.0664                 1.1579
 Frc consts  --      1.8041                 1.4723                 1.6371
 IR Inten    --     17.6200                19.0544                 8.1407

                     25                     26                     27
                      A                      A                      A
 Frequencies --   1553.3839              1570.1961              3054.5381
 Red. masses --      2.0510                 3.0136                 1.0371
 Frc consts  --      2.9158                 4.3777                 5.7012
 IR Inten    --     28.5587                 3.0032                68.2610

                     28                     29                     30
                      A                      A                      A
 Frequencies --   3129.4296              3160.4438              3265.3476
 Red. masses --      1.0972                 1.1025                 1.0886
 Frc consts  --      6.3309                 6.4883                 6.8389
 IR Inten    --     27.9012                15.8640                 5.8055

                     31                     32                     33
                      A                      A                      A
 Frequencies --   3278.0090              3295.2873              3304.8282
 Red. masses --      1.0931                 1.0996                 1.1091
 Frc consts  --      6.9204                 7.0350                 7.1371
 IR Inten    --     10.3079                 8.5451                 1.4495

 - Thermochemistry -
 -------------------
 Temperature   298.150 Kelvin.  Pressure   1.00000 Atm.
 Atom     1 has atomic number  6 and mass  12.00000

 Molecular mass:    81.05785 amu.
 Principal axes and moments of inertia in atomic units:
                           1         2         3
     Eigenvalues --   210.33310 512.86326 711.60253
           X            1.00000   0.00000  -0.00048
           Y            0.00000   1.00000   0.00000
           Z            0.00048   0.00000   1.00000
 This molecule is an asymmetric top.
 Rotational symmetry number  1.
 Rotational temperatures (Kelvin)      0.41179     0.16888     0.12172
 Rotational constants (GHZ):           8.58040     3.51895     2.53616
 Zero-point vibrational energy     293113.3 (Joules/Mol)
                                   70.05575 (Kcal/Mol)
 Warning -- explicit consideration of   3 degrees of freedom as
           vibrations may cause significant error
 Vibrational temperatures:    105.12   297.62   527.59   912.89   916.70
          (Kelvin)            978.32  1026.79  1074.99  1217.78  1301.54
                             1315.99  1442.29  1550.69  1579.79  1623.76
                             1626.94  1684.20  1911.70  1911.80  2018.88
                             2070.99  2130.02  2202.42  2228.84  2234.97
                             2259.16  4394.80  4502.55  4547.17  4698.11
                             4716.32  4741.18  4754.91

 Zero-point correction=                           0.111641 (Hartree/Particle)
 Thermal correction to Energy=                    0.117137
 Thermal correction to Enthalpy=                  0.118081
 Thermal correction to Gibbs Free Energy=         0.082549
 Sum of electronic and zero-point Energies=           -249.321085
 Sum of electronic and thermal Energies=              -249.315588
 Sum of electronic and thermal Enthalpies=            -249.314644
 Sum of electronic and thermal Free Energies=         -249.350176

                     E (Thermal)             CV                S
                      KCal/Mol        Cal/Mol-Kelvin    Cal/Mol-Kelvin
 Total                   73.505             19.667             74.783
 Electronic               0.000              0.000              0.000
 Translational            0.889              2.981             39.092
 Rotational               0.889              2.981             25.843
 Vibrational             71.727             13.706              9.848
 Vibration     1          0.599              1.967              4.069
 Vibration     2          0.641              1.830              2.071
 Vibration     3          0.740              1.541              1.094

 Optimization completed.
    -- Stationary point found.
 Normal termination of Gaussian 16 at Thu Dec  7 16:42:11 2017.
