 Gaussian 16, Revision A.03,
 Gaussian 16:  ES64L-G16RevA.03 25-Dec-2016

 ----------------------------------------------------------------------
 #p b3lyp empiricaldispersion=gd3bj 6-31g scrf=(pcm,solvent=perfluorobe
 nzene) opt freq=noraman
 ----------------------------------------------------------------------

 -------
 Pyrrole
 -------
 Symbolic Z-matrix:
 Charge =  0 Multiplicity = 1

 SCF Done:  E(RB3LYP) =  -210.103558738     A.U. after   12 cycles
 SCF Done:  E(RB3LYP) =  -210.127534113     A.U. after   10 cycles
 SCF Done:  E(RB3LYP) =  -210.129292617     A.U. after   10 cycles
 SCF Done:  E(RB3LYP) =  -210.129158714     A.U. after   10 cycles
 SCF Done:  E(RB3LYP) =  -210.129601728     A.U. after    9 cycles
 SCF Done:  E(RB3LYP) =  -210.129613797     A.U. after    9 cycles
 SCF Done:  E(RB3LYP) =  -210.129616621     A.U. after    9 cycles
 SCF Done:  E(RB3LYP) =  -210.129621530     A.U. after    9 cycles
 Optimization completed.
    -- Stationary point found.
 Normal termination of Gaussian 16 at Thu Dec  7 02:46:47 2017.

 -----------------------------------------------------------------
 #P Geom=AllCheck Guess=TCheck SCRF=Check GenChk RB3LYP/6-31G Freq
 -----------------------------------------------------------------

 Structure from the checkpoint file:  "/scratch/dhuang9_pyrrole_isolated_b3lyp_631g_pfb/Gau-42919.chk"
 -------
 Pyrrole
 -------
 Charge =  0 Multiplicity = 1

                         Standard orientation:
 ---------------------------------------------------------------------
 Center     Atomic      Atomic             Coordinates (Angstroms)
 Number     Number       Type             X           Y           Z
 ---------------------------------------------------------------------
      1          6           0        0.987972   -0.714787    0.000004
      2          6           0       -0.330485   -1.134750   -0.000015
      3          6           0        0.985821    0.717714    0.000001
      4          1           0        1.852324    1.361405    0.000064
      5          6           0       -0.333928    1.133657    0.000023
      6          1           0       -0.764638    2.121508   -0.000171
      7          7           0       -1.129454   -0.001629   -0.000040
      8          1           0        1.856444   -1.355644    0.000031
      9          1           0       -0.758387   -2.123687   -0.000033
     10          1           0       -2.135844   -0.003186    0.000311
 ---------------------------------------------------------------------

 SCF Done:  E(RB3LYP) =  -210.129621530     A.U. after    1 cycles

 The electronic state is 1-A.
 Alpha  occ. eigenvalues --  -14.36999 -10.19929 -10.19926 -10.16211 -10.16179
 Alpha  occ. eigenvalues --   -0.96868  -0.76705  -0.71628  -0.58557  -0.55984
 Alpha  occ. eigenvalues --   -0.54014  -0.42699  -0.41971  -0.39625  -0.38664
 Alpha  occ. eigenvalues --   -0.37029  -0.23686  -0.20748
 Alpha virt. eigenvalues --    0.04441   0.08642   0.09189   0.14283   0.16571
 Alpha virt. eigenvalues --    0.17033   0.18200   0.23509   0.24285   0.34140
 Alpha virt. eigenvalues --    0.37653   0.44529   0.55533   0.57556   0.60610

 Mulliken charges:
               1
     1  C   -0.186369
     2  C    0.075424
     3  C   -0.186403
     4  H    0.124295
     5  C    0.075507
     6  H    0.151425
     7  N   -0.660782
     8  H    0.124292
     9  H    0.151412
    10  H    0.331199
 Sum of Mulliken charges =   0.00000

 Dipole moment (field-independent basis, Debye):
    X=             -2.0978    Y=             -0.0031    Z=              0.0006  Tot=              2.0978
 Quadrupole moment (field-independent basis, Debye-Ang):
   XX=            -23.1617   YY=            -26.3031   ZZ=            -33.2810
   XY=              0.0048   XZ=             -0.0012   YZ=             -0.0003

  Exact polarizability:  56.613   0.000  57.331   0.000   0.000  16.776
 Approx polarizability:  82.998   0.007  79.310   0.000   0.001  20.246

                      1                      2                      3
                      A                      A                      A
 Frequencies --    603.9266               640.1427               647.1346
 Red. masses --      1.5527                 3.0246                 1.9522
 Frc consts  --      0.3337                 0.7302                 0.4817
 IR Inten    --    155.2476                 0.0001                 8.1746

                      4                      5                      6
                      A                      A                      A
 Frequencies --    718.8554               748.3607               862.2266
 Red. masses --      1.2917                 1.1988                 1.2632
 Frc consts  --      0.3933                 0.3956                 0.5533
 IR Inten    --      0.0119               127.9997                 5.0007

                      7                      8                      9
                      A                      A                      A
 Frequencies --    907.2705               913.3581               924.4747
 Red. masses --      5.3398                 1.3242                 4.2325
 Frc consts  --      2.5897                 0.6508                 2.1313
 IR Inten    --      1.3217                 0.0001                 0.6089

                     10                     11                     12
                      A                      A                      A
 Frequencies --   1047.2918              1086.8405              1116.4730
 Red. masses --      1.5240                 1.4614                 1.6409
 Frc consts  --      0.9848                 1.0171                 1.2051
 IR Inten    --     40.4380                30.9517                 8.3525

                     13                     14                     15
                      A                      A                      A
 Frequencies --   1182.1282              1189.0409              1344.3731
 Red. masses --      2.9313                 1.2849                 1.4379
 Frc consts  --      2.4135                 1.0703                 1.5312
 IR Inten    --      1.8783                 2.4383                 0.5874

                     16                     17                     18
                      A                      A                      A
 Frequencies --   1436.5205              1464.2826              1510.8324
 Red. masses --      3.8921                 2.5546                 2.6638
 Frc consts  --      4.7321                 3.2272                 3.5825
 IR Inten    --      7.0361                12.3806                 9.7582

                     19                     20                     21
                      A                      A                      A
 Frequencies --   1598.9587              3269.7203              3283.3146
 Red. masses --      2.7375                 1.0895                 1.0943
 Frc consts  --      4.1236                 6.8626                 6.9502
 IR Inten    --      9.5692                 6.3593                 9.3443

                     22                     23                     24
                      A                      A                      A
 Frequencies --   3305.7667              3313.3500              3694.8486
 Red. masses --      1.0995                 1.1078                 1.0812
 Frc consts  --      7.0795                 7.1652                 8.6964
 IR Inten    --      7.3372                 0.0984                64.9185

 - Thermochemistry -
 -------------------
 Temperature   298.150 Kelvin.  Pressure   1.00000 Atm.
 Atom     1 has atomic number  6 and mass  12.00000

 Molecular mass:    67.04220 amu.
 Principal axes and moments of inertia in atomic units:
                           1         2         3
     Eigenvalues --   199.93650 202.06824 402.00474
           X            1.00000   0.00046  -0.00001
           Y           -0.00046   1.00000   0.00000
           Z            0.00001   0.00000   1.00000
 This molecule is an asymmetric top.
 Rotational symmetry number  1.
 Rotational temperatures (Kelvin)      0.43321     0.42864     0.21545
 Rotational constants (GHZ):           9.02657     8.93135     4.48935
 Zero-point vibrational energy     220169.7 (Joules/Mol)
                                   52.62181 (Kcal/Mol)
 Warning -- explicit consideration of   1 degrees of freedom as
           vibrations may cause significant error
 Vibrational temperatures:    868.92   921.02   931.08  1034.27  1076.72
          (Kelvin)           1240.55  1305.36  1314.12  1330.11  1506.82
                             1563.72  1606.36  1700.82  1710.76  1934.25
                             2066.83  2106.78  2173.75  2300.54  4704.40
                             4723.96  4756.26  4767.17  5316.06

 Zero-point correction=                           0.083858 (Hartree/Particle)
 Thermal correction to Energy=                    0.087684
 Thermal correction to Enthalpy=                  0.088628
 Thermal correction to Gibbs Free Energy=         0.057514
 Sum of electronic and zero-point Energies=           -210.045763
 Sum of electronic and thermal Energies=              -210.041938
 Sum of electronic and thermal Enthalpies=            -210.040993
 Sum of electronic and thermal Free Energies=         -210.072107

                     E (Thermal)             CV                S
                      KCal/Mol        Cal/Mol-Kelvin    Cal/Mol-Kelvin
 Total                   55.023             14.139             65.485
 Electronic               0.000              0.000              0.000
 Translational            0.889              2.981             38.526
 Rotational               0.889              2.981             24.300
 Vibrational             53.245              8.178              2.659
 Vibration     1          0.962              1.023              0.443

 Optimization completed.
    -- Stationary point found.
 Normal termination of Gaussian 16 at Thu Dec  7 02:47:24 2017.
