 Gaussian 16, Revision A.03,
 Gaussian 16:  ES64L-G16RevA.03 25-Dec-2016

 ----------------------------------------------------------------------
 #p b3lyp empiricaldispersion=gd3bj 6-31g scrf=(pcm,solvent=benzene) op
 t freq=noraman
 ----------------------------------------------------------------------

 -------
 Pyrrole
 -------
 Symbolic Z-matrix:
 Charge =  0 Multiplicity = 1

 SCF Done:  E(RB3LYP) =  -210.103871609     A.U. after   12 cycles
 SCF Done:  E(RB3LYP) =  -210.127851964     A.U. after   10 cycles
 SCF Done:  E(RB3LYP) =  -210.129616540     A.U. after   10 cycles
 SCF Done:  E(RB3LYP) =  -210.129481062     A.U. after   10 cycles
 SCF Done:  E(RB3LYP) =  -210.129925353     A.U. after    9 cycles
 SCF Done:  E(RB3LYP) =  -210.129937099     A.U. after    9 cycles
 SCF Done:  E(RB3LYP) =  -210.129940050     A.U. after    9 cycles
 SCF Done:  E(RB3LYP) =  -210.129944832     A.U. after    9 cycles
 Optimization completed.
    -- Stationary point found.
 Normal termination of Gaussian 16 at Thu Dec  7 02:45:57 2017.

 -----------------------------------------------------------------
 #P Geom=AllCheck Guess=TCheck SCRF=Check GenChk RB3LYP/6-31G Freq
 -----------------------------------------------------------------

 Structure from the checkpoint file:  "/scratch/dhuang9_pyrrole_isolated_b3lyp_631g_b/Gau-185863.chk"
 -------
 Pyrrole
 -------
 Charge =  0 Multiplicity = 1

                         Standard orientation:
 ---------------------------------------------------------------------
 Center     Atomic      Atomic             Coordinates (Angstroms)
 Number     Number       Type             X           Y           Z
 ---------------------------------------------------------------------
      1          6           0        0.988059   -0.714834    0.000004
      2          6           0       -0.330570   -1.134732   -0.000014
      3          6           0        0.985919    0.717748    0.000001
      4          1           0        1.852408    1.361511    0.000062
      5          6           0       -0.333995    1.133645    0.000022
      6          1           0       -0.764862    2.121430   -0.000166
      7          7           0       -1.129427   -0.001622   -0.000040
      8          1           0        1.856508   -1.355781    0.000030
      9          1           0       -0.758636   -2.123603   -0.000034
     10          1           0       -2.135902   -0.003164    0.000306
 ---------------------------------------------------------------------

 SCF Done:  E(RB3LYP) =  -210.129944832     A.U. after    1 cycles

 The electronic state is 1-A.
 Alpha  occ. eigenvalues --  -14.37007 -10.19950 -10.19948 -10.16245 -10.16213
 Alpha  occ. eigenvalues --   -0.96885  -0.76724  -0.71648  -0.58562  -0.56007
 Alpha  occ. eigenvalues --   -0.54024  -0.42715  -0.41979  -0.39654  -0.38691
 Alpha  occ. eigenvalues --   -0.37053  -0.23723  -0.20784
 Alpha virt. eigenvalues --    0.04412   0.08717   0.09141   0.14311   0.16599
 Alpha virt. eigenvalues --    0.17028   0.18178   0.23490   0.24282   0.34112
 Alpha virt. eigenvalues --    0.37657   0.44511   0.55478   0.57529   0.60610

 Mulliken charges:
               1
     1  C   -0.187969
     2  C    0.074363
     3  C   -0.188002
     4  H    0.124813
     5  C    0.074442
     6  H    0.152541
     7  N   -0.660461
     8  H    0.124810
     9  H    0.152529
    10  H    0.332934
 Sum of Mulliken charges =   0.00000

 Dipole moment (field-independent basis, Debye):
    X=             -2.1248    Y=             -0.0031    Z=              0.0005  Tot=              2.1248
 Quadrupole moment (field-independent basis, Debye-Ang):
   XX=            -23.1326   YY=            -26.2826   ZZ=            -33.2881
   XY=              0.0047   XZ=             -0.0012   YZ=             -0.0003

  Exact polarizability:  57.342   0.000  58.060   0.000   0.000  16.898
 Approx polarizability:  82.978   0.007  79.299   0.000   0.001  20.255

                      1                      2                      3
                      A                      A                      A
 Frequencies --    604.8023               640.1974               647.5149
 Red. masses --      1.5629                 3.0270                 1.9349
 Frc consts  --      0.3368                 0.7310                 0.4780
 IR Inten    --    157.5332                 0.0001                 9.0860

                      4                      5                      6
                      A                      A                      A
 Frequencies --    719.5394               748.4424               862.5850
 Red. masses --      1.2917                 1.1988                 1.2638
 Frc consts  --      0.3940                 0.3957                 0.5540
 IR Inten    --      0.0120               128.9460                 4.9451

                      7                      8                      9
                      A                      A                      A
 Frequencies --    907.2755               913.1952               924.4225
 Red. masses --      5.3441                 1.3237                 4.2304
 Frc consts  --      2.5918                 0.6504                 2.1300
 IR Inten    --      1.3493                 0.0001                 0.6332

                     10                     11                     12
                      A                      A                      A
 Frequencies --   1047.0366              1086.6303              1116.1730
 Red. masses --      1.5233                 1.4606                 1.6385
 Frc consts  --      0.9839                 1.0161                 1.2027
 IR Inten    --     41.6320                31.8212                 8.5952

                     13                     14                     15
                      A                      A                      A
 Frequencies --   1181.9375              1188.7543              1344.3648
 Red. masses --      2.9436                 1.2852                 1.4387
 Frc consts  --      2.4228                 1.0701                 1.5320
 IR Inten    --      1.8846                 2.5781                 0.6006

                     16                     17                     18
                      A                      A                      A
 Frequencies --   1436.2424              1464.1575              1510.7061
 Red. masses --      3.8956                 2.5588                 2.6608
 Frc consts  --      4.7345                 3.2319                 3.5778
 IR Inten    --      7.1878                12.6806                 9.9989

                     19                     20                     21
                      A                      A                      A
 Frequencies --   1598.6633              3269.4380              3283.0973
 Red. masses --      2.7297                 1.0895                 1.0944
 Frc consts  --      4.1104                 6.8617                 6.9499
 IR Inten    --      9.8411                 6.6414                 9.5829

                     22                     23                     24
                      A                      A                      A
 Frequencies --   3305.9057              3313.4146              3694.1479
 Red. masses --      1.0995                 1.1077                 1.0812
 Frc consts  --      7.0799                 7.1650                 8.6934
 IR Inten    --      7.2872                 0.0936                67.5584

 - Thermochemistry -
 -------------------
 Temperature   298.150 Kelvin.  Pressure   1.00000 Atm.
 Atom     1 has atomic number  6 and mass  12.00000

 Molecular mass:    67.04220 amu.
 Principal axes and moments of inertia in atomic units:
                           1         2         3
     Eigenvalues --   199.93843 202.09056 402.02899
           X            1.00000   0.00041  -0.00001
           Y           -0.00041   1.00000   0.00000
           Z            0.00001   0.00000   1.00000
 This molecule is an asymmetric top.
 Rotational symmetry number  1.
 Rotational temperatures (Kelvin)      0.43320     0.42859     0.21544
 Rotational constants (GHZ):           9.02648     8.93036     4.48908
 Zero-point vibrational energy     220164.6 (Joules/Mol)
                                   52.62060 (Kcal/Mol)
 Warning -- explicit consideration of   1 degrees of freedom as
           vibrations may cause significant error
 Vibrational temperatures:    870.18   921.10   931.63  1035.26  1076.84
          (Kelvin)           1241.07  1305.37  1313.88  1330.04  1506.45
                             1563.42  1605.92  1700.54  1710.35  1934.24
                             2066.43  2106.60  2173.57  2300.12  4703.99
                             4723.64  4756.46  4767.26  5315.05

 Zero-point correction=                           0.083856 (Hartree/Particle)
 Thermal correction to Energy=                    0.087681
 Thermal correction to Enthalpy=                  0.088625
 Thermal correction to Gibbs Free Energy=         0.057513
 Sum of electronic and zero-point Energies=           -210.046089
 Sum of electronic and thermal Energies=              -210.042264
 Sum of electronic and thermal Enthalpies=            -210.041319
 Sum of electronic and thermal Free Energies=         -210.072432

                     E (Thermal)             CV                S
                      KCal/Mol        Cal/Mol-Kelvin    Cal/Mol-Kelvin
 Total                   55.021             14.136             65.482
 Electronic               0.000              0.000              0.000
 Translational            0.889              2.981             38.526
 Rotational               0.889              2.981             24.300
 Vibrational             53.243              8.174              2.656
 Vibration     1          0.963              1.022              0.441

 Optimization completed.
    -- Stationary point found.
 Normal termination of Gaussian 16 at Thu Dec  7 02:46:21 2017.
