 Gaussian 16, Revision A.03,
 Gaussian 16:  ES64L-G16RevA.03 25-Dec-2016

 ----------------------------------------------------------------------
 #p b3lyp empiricaldispersion=gd3bj midix scrf=(pcm,solvent=perfluorobe
 nzene) opt freq=noraman
 ----------------------------------------------------------------------

 -----------------
 Solvated Isolated
 -----------------
 Symbolic Z-matrix:
 Charge =  0 Multiplicity = 1

 SCF Done:  E(RB3LYP) =  -267.584810602     A.U. after   16 cycles
 SCF Done:  E(RB3LYP) =  -267.637217649     A.U. after   15 cycles
 SCF Done:  E(RB3LYP) =  -267.683460309     A.U. after   14 cycles
 SCF Done:  E(RB3LYP) =  -267.699730015     A.U. after   14 cycles
 SCF Done:  E(RB3LYP) =  -267.710307818     A.U. after   13 cycles
 SCF Done:  E(RB3LYP) =  -267.713067117     A.U. after   13 cycles
 SCF Done:  E(RB3LYP) =  -267.713075604     A.U. after   12 cycles
 SCF Done:  E(RB3LYP) =  -267.713815994     A.U. after   13 cycles
 SCF Done:  E(RB3LYP) =  -267.713889829     A.U. after   12 cycles
 SCF Done:  E(RB3LYP) =  -267.713862317     A.U. after   12 cycles
 SCF Done:  E(RB3LYP) =  -267.713904680     A.U. after   12 cycles
 SCF Done:  E(RB3LYP) =  -267.713909146     A.U. after   11 cycles
 SCF Done:  E(RB3LYP) =  -267.713909908     A.U. after   10 cycles
 SCF Done:  E(RB3LYP) =  -267.713910262     A.U. after   11 cycles
 SCF Done:  E(RB3LYP) =  -267.713910310     A.U. after   10 cycles
 Optimization completed.
    -- Stationary point found.
 Normal termination of Gaussian 16 at Fri Dec  8 01:07:47 2017.

 -----------------------------------------------------------------
 #P Geom=AllCheck Guess=TCheck SCRF=Check GenChk RB3LYP/MIDIx Freq
 -----------------------------------------------------------------

 Structure from the checkpoint file:  "/scratch/dhuang9_oxyallyl_isolated_b3lyp_midix_pfb/Gau-145563.chk"
 -----------------
 Solvated Isolated
 -----------------
 Charge =  0 Multiplicity = 1

                         Standard orientation:
 ---------------------------------------------------------------------
 Center     Atomic      Atomic             Coordinates (Angstroms)
 Number     Number       Type             X           Y           Z
 ---------------------------------------------------------------------
      1          6           0        0.957964   -0.000002   -0.000044
      2          6           0        0.033085    1.133094   -0.000139
      3          6           0       -1.399573    0.778877    0.000088
      4          6           0       -1.399569   -0.778877    0.000014
      5          6           0        0.033091   -1.133094   -0.000085
      6          1           0        0.392595    2.159458   -0.000206
      7          1           0       -1.931746    1.185366    0.879280
      8          1           0       -1.932086    1.185538   -0.878803
      9          1           0       -1.931898   -1.185529    0.879027
     10          1           0       -1.931919   -1.185379   -0.879057
     11          1           0        0.392587   -2.159465   -0.000068
     12          8           0        2.199060    0.000004    0.000103
 ---------------------------------------------------------------------

 SCF Done:  E(RB3LYP) =  -267.713910310     A.U. after    1 cycles

 The electronic state is 1-A.
 Alpha  occ. eigenvalues --  -18.93603 -10.17594 -10.16228 -10.16222 -10.15398
 Alpha  occ. eigenvalues --  -10.15306  -0.97367  -0.87181  -0.73699  -0.71136
 Alpha  occ. eigenvalues --   -0.59188  -0.54340  -0.48762  -0.48476  -0.41464
 Alpha  occ. eigenvalues --   -0.39562  -0.39065  -0.37788  -0.36642  -0.35503
 Alpha  occ. eigenvalues --   -0.19737  -0.19366
 Alpha virt. eigenvalues --   -0.11518   0.07782   0.08444   0.12810   0.13130
 Alpha virt. eigenvalues --    0.13568   0.15017   0.19848   0.19942   0.20748
 Alpha virt. eigenvalues --    0.29568   0.35586   0.37112   0.43949   0.61557

 Mulliken charges:
               1
     1  C    0.391104
     2  C   -0.112072
     3  C   -0.381239
     4  C   -0.381239
     5  C   -0.112071
     6  H    0.199177
     7  H    0.215274
     8  H    0.215263
     9  H    0.215261
    10  H    0.215275
    11  H    0.199177
    12  O   -0.663909
 Sum of Mulliken charges =   0.00000

 Dipole moment (field-independent basis, Debye):
    X=             -5.6957    Y=              0.0000    Z=             -0.0001  Tot=              5.6957
 Quadrupole moment (field-independent basis, Debye-Ang):
   XX=            -43.3027   YY=            -30.7898   ZZ=            -35.1661
   XY=              0.0000   XZ=             -0.0007   YZ=              0.0000

  Exact polarizability:  70.566   0.000  84.455   0.001   0.000  33.159
 Approx polarizability: 105.657  -0.001 203.555   0.004  -0.001  44.108

                      1                      2                      3
                      A                      A                      A
 Frequencies --    111.8450               176.5818               414.4984
 Red. masses --      2.9474                 1.5139                 5.0552
 Frc consts  --      0.0217                 0.0278                 0.5117
 IR Inten    --      1.9507                 0.0000                 0.1628

                      4                      5                      6
                      A                      A                      A
 Frequencies --    448.4930               648.7525               699.2152
 Red. masses --      1.9139                 7.4965                 1.4990
 Frc consts  --      0.2268                 1.8589                 0.4318
 IR Inten    --     15.3620                 2.8383                36.1052

                      7                      8                      9
                      A                      A                      A
 Frequencies --    768.4637               849.7979               890.0903
 Red. masses --      5.5079                 1.1347                 3.0722
 Frc consts  --      1.9164                 0.4828                 1.4340
 IR Inten    --      1.3602                 0.0000                 7.8605

                     10                     11                     12
                      A                      A                      A
 Frequencies --    900.9947               924.7217               988.5951
 Red. masses --      1.6680                 3.8090                 1.6978
 Frc consts  --      0.7978                 1.9190                 0.9776
 IR Inten    --     32.9833                 6.1823                58.3582

                     13                     14                     15
                      A                      A                      A
 Frequencies --   1001.3139              1085.5844              1114.9725
 Red. masses --      2.1692                 1.5293                 1.1056
 Frc consts  --      1.2814                 1.0618                 0.8098
 IR Inten    --      0.0000                 0.6581                 0.3797

                     16                     17                     18
                      A                      A                      A
 Frequencies --   1140.7120              1194.0694              1235.2238
 Red. masses --      4.8310                 1.1393                 2.1908
 Frc consts  --      3.7038                 0.9570                 1.9694
 IR Inten    --     64.8699                 0.0000                 2.1130

                     19                     20                     21
                      A                      A                      A
 Frequencies --   1305.5885              1338.2221              1368.3799
 Red. masses --      1.8202                 1.7767                 1.7757
 Frc consts  --      1.8280                 1.8746                 1.9590
 IR Inten    --     31.9708                62.7434                12.6750

                     22                     23                     24
                      A                      A                      A
 Frequencies --   1471.0398              1481.3912              1734.7401
 Red. masses --      1.0728                 1.0699                 9.6544
 Frc consts  --      1.3678                 1.3834                17.1177
 IR Inten    --     16.4086                38.3126               516.2121

                     25                     26                     27
                      A                      A                      A
 Frequencies --   2980.4347              2982.9525              2990.3174
 Red. masses --      1.0582                 1.0579                 1.0969
 Frc consts  --      5.5385                 5.5463                 5.7790
 IR Inten    --      9.3261                 8.5973                 0.0003

                     28                     29                     30
                      A                      A                      A
 Frequencies --   2998.0496              3208.4821              3211.5141
 Red. masses --      1.0966                 1.0910                 1.0921
 Frc consts  --      5.8072                 6.6173                 6.6365
 IR Inten    --      7.9427                 2.0225                 6.8725

 - Thermochemistry -
 -------------------
 Temperature   298.150 Kelvin.  Pressure   1.00000 Atm.
 Atom     1 has atomic number  6 and mass  12.00000

 Molecular mass:    82.04186 amu.
 Principal axes and moments of inertia in atomic units:
                           1         2         3
     Eigenvalues --   226.95187 547.42379 752.12760
           X            1.00000   0.00000   0.00000
           Y            0.00000   1.00000   0.00000
           Z            0.00000   0.00000   1.00000
 This molecule is an asymmetric top.
 Rotational symmetry number  1.
 Rotational temperatures (Kelvin)      0.38164     0.15822     0.11516
 Rotational constants (GHZ):           7.95209     3.29679     2.39951
 Zero-point vibrational energy     249212.3 (Joules/Mol)
                                   59.56316 (Kcal/Mol)
 Warning -- explicit consideration of   4 degrees of freedom as
           vibrations may cause significant error
 Vibrational temperatures:    160.92   254.06   596.37   645.28   933.41
          (Kelvin)           1006.01  1105.65  1222.67  1280.64  1296.33
                             1330.47  1422.37  1440.67  1561.91  1604.20
                             1641.23  1718.00  1777.21  1878.45  1925.40
                             1968.79  2116.50  2131.39  2495.90  4288.18
                             4291.80  4302.40  4313.52  4616.29  4620.65

 Zero-point correction=                           0.094920 (Hartree/Particle)
 Thermal correction to Energy=                    0.100404
 Thermal correction to Enthalpy=                  0.101348
 Thermal correction to Gibbs Free Energy=         0.065940
 Sum of electronic and zero-point Energies=           -267.618990
 Sum of electronic and thermal Energies=              -267.613507
 Sum of electronic and thermal Enthalpies=            -267.612563
 Sum of electronic and thermal Free Energies=         -267.647970

                     E (Thermal)             CV                S
                      KCal/Mol        Cal/Mol-Kelvin    Cal/Mol-Kelvin
 Total                   63.004             19.646             74.522
 Electronic               0.000              0.000              0.000
 Translational            0.889              2.981             39.128
 Rotational               0.889              2.981             26.038
 Vibrational             61.227             13.685              9.355
 Vibration     1          0.607              1.940              3.237
 Vibration     2          0.628              1.871              2.364
 Vibration     3          0.778              1.439              0.911
 Vibration     4          0.808              1.364              0.800

 Optimization completed.
    -- Stationary point found.
 Normal termination of Gaussian 16 at Fri Dec  8 01:08:47 2017.
