 Gaussian 16, Revision A.03,
 Gaussian 16:  ES64L-G16RevA.03 25-Dec-2016

 ----------------------------------------------------------------------
 #p b3lyp empiricaldispersion=gd3bj 6-31g scrf=(pcm,solvent=benzene) op
 t freq=noraman
 ----------------------------------------------------------------------

 -----------------
 Solvated Isolated
 -----------------
 Symbolic Z-matrix:
 Charge =  0 Multiplicity = 1

 SCF Done:  E(RB3LYP) =  -269.087853870     A.U. after   16 cycles
 SCF Done:  E(RB3LYP) =  -269.139692956     A.U. after   15 cycles
 SCF Done:  E(RB3LYP) =  -269.192475763     A.U. after   14 cycles
 SCF Done:  E(RB3LYP) =  -269.207602238     A.U. after   14 cycles
 SCF Done:  E(RB3LYP) =  -269.214772293     A.U. after   13 cycles
 SCF Done:  E(RB3LYP) =  -269.216085992     A.U. after   12 cycles
 SCF Done:  E(RB3LYP) =  -269.216798528     A.U. after   13 cycles
 SCF Done:  E(RB3LYP) =  -269.217000841     A.U. after   11 cycles
 SCF Done:  E(RB3LYP) =  -269.217009386     A.U. after   12 cycles
 SCF Done:  E(RB3LYP) =  -269.217019538     A.U. after   11 cycles
 SCF Done:  E(RB3LYP) =  -269.217021649     A.U. after   11 cycles
 SCF Done:  E(RB3LYP) =  -269.217023638     A.U. after   11 cycles
 Optimization completed.
    -- Stationary point found.
 Normal termination of Gaussian 16 at Tue Nov 28 18:27:52 2017.

 -----------------------------------------------------------------
 #P Geom=AllCheck Guess=TCheck SCRF=Check GenChk RB3LYP/6-31G Freq
 -----------------------------------------------------------------

 Structure from the checkpoint file:  "/scratch/dhuang9_oxyallyl_isolated_b3lyp_631g_b/Gau-46993.chk"
 -----------------
 Solvated Isolated
 -----------------
 Charge =  0 Multiplicity = 1

                         Standard orientation:
 ---------------------------------------------------------------------
 Center     Atomic      Atomic             Coordinates (Angstroms)
 Number     Number       Type             X           Y           Z
 ---------------------------------------------------------------------
      1          6           0        0.936718   -0.000021    0.000023
      2          6           0        0.034659    1.130454    0.000046
      3          6           0       -1.398872    0.773285   -0.000212
      4          6           0       -1.398838   -0.773276    0.000258
      5          6           0        0.034711   -1.130506   -0.000100
      6          1           0        0.388642    2.156406    0.000405
      7          1           0       -1.926898    1.186757    0.873730
      8          1           0       -1.926776    1.186296   -0.874485
      9          1           0       -1.926523   -1.186450    0.874579
     10          1           0       -1.927059   -1.186534   -0.873653
     11          1           0        0.388598   -2.156499   -0.000850
     12          8           0        2.209969    0.000050    0.000023
 ---------------------------------------------------------------------

 SCF Done:  E(RB3LYP) =  -269.217023638     A.U. after    1 cycles

 The electronic state is 1-A.
 Alpha  occ. eigenvalues --  -19.06295 -10.24557 -10.23448 -10.23448 -10.21564
 Alpha  occ. eigenvalues --  -10.21554  -0.97386  -0.87100  -0.73923  -0.71461
 Alpha  occ. eigenvalues --   -0.59892  -0.55024  -0.49130  -0.48592  -0.42009
 Alpha  occ. eigenvalues --   -0.40052  -0.39392  -0.38250  -0.36142  -0.35801
 Alpha  occ. eigenvalues --   -0.20795  -0.20018
 Alpha virt. eigenvalues --   -0.12073   0.07518   0.08166   0.12176   0.13381
 Alpha virt. eigenvalues --    0.14148   0.15389   0.17771   0.18689   0.20222
 Alpha virt. eigenvalues --    0.28819   0.31423   0.32149   0.42540   0.51638

 Mulliken charges:
               1
     1  C    0.298407
     2  C   -0.078185
     3  C   -0.330530
     4  C   -0.330533
     5  C   -0.078180
     6  H    0.173949
     7  H    0.190929
     8  H    0.190988
     9  H    0.190983
    10  H    0.190914
    11  H    0.173953
    12  O   -0.592694
 Sum of Mulliken charges =   0.00000

 Dipole moment (field-independent basis, Debye):
    X=             -7.1597    Y=              0.0000    Z=             -0.0002  Tot=              7.1597
 Quadrupole moment (field-independent basis, Debye-Ang):
   XX=            -46.1202   YY=            -29.6348   ZZ=            -34.8886
   XY=             -0.0008   XZ=             -0.0002   YZ=              0.0005

  Exact polarizability:  76.224  -0.001  86.570   0.000   0.002  32.646
 Approx polarizability: 109.002  -0.004 190.397   0.000  -0.004  41.745

                      1                      2                      3
                      A                      A                      A
 Frequencies --    142.7552               179.1877               432.4304
 Red. masses --      2.9279                 1.5026                 5.1965
 Frc consts  --      0.0352                 0.0284                 0.5725
 IR Inten    --      5.5511                 0.0000                 0.0000

                      4                      5                      6
                      A                      A                      A
 Frequencies --    467.1339               656.3158               689.4620
 Red. masses --      2.0392                 7.9507                 1.4810
 Frc consts  --      0.2622                 2.0178                 0.4148
 IR Inten    --      8.8064                 7.2857                36.4656

                      7                      8                      9
                      A                      A                      A
 Frequencies --    779.6131               846.3209               908.6714
 Red. masses --      5.4894                 1.1305                 1.5614
 Frc consts  --      1.9658                 0.4771                 0.7596
 IR Inten    --      2.3875                 0.0000                15.7940

                     10                     11                     12
                      A                      A                      A
 Frequencies --    925.9166               958.2974              1004.4949
 Red. masses --      3.2901                 3.1201                 1.6144
 Frc consts  --      1.6619                 1.6882                 0.9598
 IR Inten    --      8.4861                 0.6787                56.3492

                     13                     14                     15
                      A                      A                      A
 Frequencies --   1010.5737              1105.2717              1122.5352
 Red. masses --      2.1975                 1.3361                 1.1286
 Frc consts  --      1.3223                 0.9617                 0.8379
 IR Inten    --      0.0004                 1.3998                 0.0766

                     16                     17                     18
                      A                      A                      A
 Frequencies --   1190.2565              1237.7661              1276.4472
 Red. masses --      1.1429                 3.0160                 2.8540
 Frc consts  --      0.9539                 2.7225                 2.7397
 IR Inten    --      0.0000                45.1799                10.1192

                     19                     20                     21
                      A                      A                      A
 Frequencies --   1336.9774              1364.6017              1372.6794
 Red. masses --      1.7247                 2.5147                 1.9181
 Frc consts  --      1.8164                 2.7589                 2.1294
 IR Inten    --    112.2297                 2.4489                57.8647

                     22                     23                     24
                      A                      A                      A
 Frequencies --   1476.3444              1489.0121              1653.5518
 Red. masses --      1.0878                 1.0761                 7.3373
 Frc consts  --      1.3969                 1.4057                11.8202
 IR Inten    --      8.9945                31.5720               478.6495

                     25                     26                     27
                      A                      A                      A
 Frequencies --   3010.8723              3016.2664              3028.7593
 Red. masses --      1.0597                 1.0606                 1.0974
 Frc consts  --      5.6600                 5.6851                 5.9314
 IR Inten    --     10.9088                 7.5205                 0.0019

                     28                     29                     30
                      A                      A                      A
 Frequencies --   3038.2711              3231.9981              3234.4608
 Red. masses --      1.0964                 1.0921                 1.0927
 Frc consts  --      5.9628                 6.7210                 6.7352
 IR Inten    --     11.2501                 1.8364                 7.4813

 - Thermochemistry -
 -------------------
 Temperature   298.150 Kelvin.  Pressure   1.00000 Atm.
 Atom     1 has atomic number  6 and mass  12.00000

 Molecular mass:    82.04186 amu.
 Principal axes and moments of inertia in atomic units:
                           1         2         3
     Eigenvalues --   225.51835 547.86088 751.38000
           X            1.00000   0.00000   0.00000
           Y            0.00000   1.00000   0.00002
           Z            0.00000  -0.00002   1.00000
 This molecule is an asymmetric top.
 Rotational symmetry number  1.
 Rotational temperatures (Kelvin)      0.38407     0.15809     0.11527
 Rotational constants (GHZ):           8.00264     3.29416     2.40190
 Zero-point vibrational energy     252335.8 (Joules/Mol)
                                   60.30969 (Kcal/Mol)
 Warning -- explicit consideration of   4 degrees of freedom as
           vibrations may cause significant error
 Vibrational temperatures:    205.39   257.81   622.17   672.10   944.29
          (Kelvin)            991.98  1121.69  1217.67  1307.38  1332.19
                             1378.78  1445.24  1453.99  1590.24  1615.08
                             1712.51  1780.87  1836.52  1923.61  1963.36
                             1974.98  2124.13  2142.36  2379.09  4331.97
                             4339.73  4357.71  4371.39  4650.12  4653.67

 Zero-point correction=                           0.096110 (Hartree/Particle)
 Thermal correction to Energy=                    0.101467
 Thermal correction to Enthalpy=                  0.102411
 Thermal correction to Gibbs Free Energy=         0.067340
 Sum of electronic and zero-point Energies=           -269.120914
 Sum of electronic and thermal Energies=              -269.115557
 Sum of electronic and thermal Enthalpies=            -269.114612
 Sum of electronic and thermal Free Energies=         -269.149683

                     E (Thermal)             CV                S
                      KCal/Mol        Cal/Mol-Kelvin    Cal/Mol-Kelvin
 Total                   63.672             19.266             73.813
 Electronic               0.000              0.000              0.000
 Translational            0.889              2.981             39.128
 Rotational               0.889              2.981             26.032
 Vibrational             61.894             13.304              8.654
 Vibration     1          0.616              1.910              2.767
 Vibration     2          0.629              1.868              2.337
 Vibration     3          0.793              1.400              0.851
 Vibration     4          0.824              1.323              0.746

 Optimization completed.
    -- Stationary point found.
 Normal termination of Gaussian 16 at Tue Nov 28 18:28:36 2017.
