 Gaussian 16, Revision A.03,
 Gaussian 16:  ES64L-G16RevA.03 25-Dec-2016

 ----------------------------------------------------------------------
 #p b3lyp empiricaldispersion=gd3bj 6-31g scrf=(pcm,solvent=perfluorobe
 nzene) opt freq=noraman
 ----------------------------------------------------------------------

 -----------------
 Solvated Isolated
 -----------------
 Symbolic Z-matrix:
 Charge =  0 Multiplicity = 1

 SCF Done:  E(RB3LYP) =  -269.087280123     A.U. after   17 cycles
 SCF Done:  E(RB3LYP) =  -269.139027010     A.U. after   15 cycles
 SCF Done:  E(RB3LYP) =  -269.191484965     A.U. after   14 cycles
 SCF Done:  E(RB3LYP) =  -269.206559252     A.U. after   14 cycles
 SCF Done:  E(RB3LYP) =  -269.213795989     A.U. after   13 cycles
 SCF Done:  E(RB3LYP) =  -269.215105157     A.U. after   12 cycles
 SCF Done:  E(RB3LYP) =  -269.215809311     A.U. after   13 cycles
 SCF Done:  E(RB3LYP) =  -269.216022839     A.U. after   13 cycles
 SCF Done:  E(RB3LYP) =  -269.216032813     A.U. after   12 cycles
 SCF Done:  E(RB3LYP) =  -269.216043168     A.U. after   11 cycles
 SCF Done:  E(RB3LYP) =  -269.216045195     A.U. after   11 cycles
 SCF Done:  E(RB3LYP) =  -269.216047165     A.U. after   11 cycles
 Optimization completed.
    -- Stationary point found.
 Normal termination of Gaussian 16 at Tue Nov 28 17:47:02 2017.

 -----------------------------------------------------------------
 #P Geom=AllCheck Guess=TCheck SCRF=Check GenChk RB3LYP/6-31G Freq
 -----------------------------------------------------------------

 Structure from the checkpoint file:  "/scratch/dhuang9_oxyallyl_isolated_b3lyp_631g_pfb/Gau-53810.chk"
 -----------------
 Solvated Isolated
 -----------------
 Charge =  0 Multiplicity = 1

                         Standard orientation:
 ---------------------------------------------------------------------
 Center     Atomic      Atomic             Coordinates (Angstroms)
 Number     Number       Type             X           Y           Z
 ---------------------------------------------------------------------
      1          6           0        0.937484   -0.000023   -0.000029
      2          6           0        0.034661    1.130563    0.000057
      3          6           0       -1.398947    0.773409   -0.000228
      4          6           0       -1.398932   -0.773389    0.000297
      5          6           0        0.034690   -1.130614   -0.000149
      6          1           0        0.388799    2.156474    0.000451
      7          1           0       -1.927309    1.186594    0.873719
      8          1           0       -1.927069    1.186050   -0.874625
      9          1           0       -1.926832   -1.186155    0.874761
     10          1           0       -1.927499   -1.186380   -0.873606
     11          1           0        0.388716   -2.156570   -0.000849
     12          8           0        2.209683    0.000039    0.000058
 ---------------------------------------------------------------------

 SCF Done:  E(RB3LYP) =  -269.216047165     A.U. after    1 cycles

 The electronic state is 1-A.
 Alpha  occ. eigenvalues --  -19.06247 -10.24536 -10.23458 -10.23457 -10.21644
 Alpha  occ. eigenvalues --  -10.21633  -0.97384  -0.87128  -0.73959  -0.71486
 Alpha  occ. eigenvalues --   -0.59925  -0.55045  -0.49202  -0.48626  -0.42023
 Alpha  occ. eigenvalues --   -0.40086  -0.39473  -0.38305  -0.36070  -0.35782
 Alpha  occ. eigenvalues --   -0.20723  -0.19985
 Alpha virt. eigenvalues --   -0.12101   0.07515   0.08054   0.12109   0.13332
 Alpha virt. eigenvalues --    0.14036   0.15341   0.17741   0.18610   0.20113
 Alpha virt. eigenvalues --    0.28803   0.31470   0.32096   0.42504   0.51611

 Mulliken charges:
               1
     1  C    0.299368
     2  C   -0.078866
     3  C   -0.330325
     4  C   -0.330325
     5  C   -0.078864
     6  H    0.173250
     7  H    0.189685
     8  H    0.189753
     9  H    0.189750
    10  H    0.189671
    11  H    0.173252
    12  O   -0.586350
 Sum of Mulliken charges =   0.00000

 Dipole moment (field-independent basis, Debye):
    X=             -7.0539    Y=              0.0000    Z=             -0.0003  Tot=              7.0539
 Quadrupole moment (field-independent basis, Debye-Ang):
   XX=            -46.0399   YY=            -29.7020   ZZ=            -34.9076
   XY=             -0.0006   XZ=             -0.0005   YZ=              0.0004

  Exact polarizability:  75.266  -0.001  85.141   0.001   0.002  32.350
 Approx polarizability: 109.174  -0.002 191.746   0.002   0.000  41.793

                      1                      2                      3
                      A                      A                      A
 Frequencies --    140.2660               179.8704               432.2601
 Red. masses --      2.9343                 1.5042                 5.1928
 Frc consts  --      0.0340                 0.0287                 0.5717
 IR Inten    --      5.3965                 0.0000                 0.0018

                      4                      5                      6
                      A                      A                      A
 Frequencies --    465.2065               656.0532               689.8875
 Red. masses --      2.0404                 7.9406                 1.4791
 Frc consts  --      0.2602                 2.0136                 0.4148
 IR Inten    --      8.6858                 6.9680                35.6488

                      7                      8                      9
                      A                      A                      A
 Frequencies --    779.1625               845.9931               908.0739
 Red. masses --      5.4946                 1.1309                 1.5639
 Frc consts  --      1.9653                 0.4769                 0.7598
 IR Inten    --      2.3604                 0.0000                15.7662

                     10                     11                     12
                      A                      A                      A
 Frequencies --    925.6033               957.5646              1004.8159
 Red. masses --      3.2971                 3.1166                 1.6158
 Frc consts  --      1.6643                 1.6837                 0.9612
 IR Inten    --      8.1723                 0.8124                53.0012

                     13                     14                     15
                      A                      A                      A
 Frequencies --   1010.8688              1105.3496              1121.6939
 Red. masses --      2.1926                 1.3381                 1.1271
 Frc consts  --      1.3201                 0.9632                 0.8356
 IR Inten    --      0.0003                 1.3013                 0.0663

                     16                     17                     18
                      A                      A                      A
 Frequencies --   1190.3828              1236.0586              1276.2227
 Red. masses --      1.1428                 3.0411                 2.8399
 Frc consts  --      0.9541                 2.7375                 2.7252
 IR Inten    --      0.0000                42.9994                 9.0250

                     19                     20                     21
                      A                      A                      A
 Frequencies --   1336.7527              1364.2817              1373.3430
 Red. masses --      1.7208                 2.5108                 1.9139
 Frc consts  --      1.8117                 2.7534                 2.1268
 IR Inten    --    106.7182                 3.0162                54.0067

                     22                     23                     24
                      A                      A                      A
 Frequencies --   1477.3922              1490.3708              1656.5971
 Red. masses --      1.0863                 1.0761                 7.4291
 Frc consts  --      1.3970                 1.4083                12.0121
 IR Inten    --      8.7768                30.1576               467.7103

                     25                     26                     27
                      A                      A                      A
 Frequencies --   3010.0957              3015.3482              3027.7542
 Red. masses --      1.0596                 1.0605                 1.0974
 Frc consts  --      5.6566                 5.6813                 5.9275
 IR Inten    --     11.2564                 8.2183                 0.0026

                     28                     29                     30
                      A                      A                      A
 Frequencies --   3037.2842              3231.8582              3234.3375
 Red. masses --      1.0964                 1.0920                 1.0926
 Frc consts  --      5.9591                 6.7203                 6.7344
 IR Inten    --     11.7324                 1.6441                 7.1589

 - Thermochemistry -
 -------------------
 Temperature   298.150 Kelvin.  Pressure   1.00000 Atm.
 Atom     1 has atomic number  6 and mass  12.00000

 Molecular mass:    82.04186 amu.
 Principal axes and moments of inertia in atomic units:
                           1         2         3
     Eigenvalues --   225.55166 547.89256 751.44168
           X            1.00000   0.00000   0.00000
           Y            0.00000   1.00000   0.00002
           Z            0.00000  -0.00002   1.00000
 This molecule is an asymmetric top.
 Rotational symmetry number  1.
 Rotational temperatures (Kelvin)      0.38401     0.15809     0.11526
 Rotational constants (GHZ):           8.00145     3.29397     2.40170
 Zero-point vibrational energy     252296.9 (Joules/Mol)
                                   60.30041 (Kcal/Mol)
 Warning -- explicit consideration of   4 degrees of freedom as
           vibrations may cause significant error
 Vibrational temperatures:    201.81   258.79   621.93   669.33   943.91
          (Kelvin)            992.59  1121.04  1217.20  1306.52  1331.74
                             1377.72  1445.71  1454.41  1590.35  1613.87
                             1712.70  1778.41  1836.20  1923.29  1962.90
                             1975.93  2125.64  2144.31  2383.47  4330.86
                             4338.41  4356.26  4369.97  4649.92  4653.49

 Zero-point correction=                           0.096095 (Hartree/Particle)
 Thermal correction to Energy=                    0.101458
 Thermal correction to Enthalpy=                  0.102402
 Thermal correction to Gibbs Free Energy=         0.067315
 Sum of electronic and zero-point Energies=           -269.119952
 Sum of electronic and thermal Energies=              -269.114589
 Sum of electronic and thermal Enthalpies=            -269.113645
 Sum of electronic and thermal Free Energies=         -269.148733

                     E (Thermal)             CV                S
                      KCal/Mol        Cal/Mol-Kelvin    Cal/Mol-Kelvin
 Total                   63.666             19.275             73.847
 Electronic               0.000              0.000              0.000
 Translational            0.889              2.981             39.128
 Rotational               0.889              2.981             26.032
 Vibrational             61.888             13.314              8.687
 Vibration     1          0.615              1.913              2.800
 Vibration     2          0.629              1.867              2.330
 Vibration     3          0.793              1.400              0.851
 Vibration     4          0.823              1.327              0.751

 Optimization completed.
    -- Stationary point found.
 Normal termination of Gaussian 16 at Tue Nov 28 17:47:49 2017.
