 Gaussian 16, Revision A.03,
 Gaussian 16:  ES64L-G16RevA.03 25-Dec-2016

 ----------------------------------------------------------------------
 #p b3lyp empiricaldispersion=gd3bj 6-31g* scrf=(pcm,solvent=perfluorob
 enzene) opt freq=noraman
 ----------------------------------------------------------------------

 -----------------
 Solvated Isolated
 -----------------
 Symbolic Z-matrix:
 Charge =  0 Multiplicity = 1

 SCF Done:  E(RB3LYP) =  -269.155356116     A.U. after   15 cycles
 SCF Done:  E(RB3LYP) =  -269.210184342     A.U. after   13 cycles
 SCF Done:  E(RB3LYP) =  -269.259019205     A.U. after   14 cycles
 SCF Done:  E(RB3LYP) =  -269.276207539     A.U. after   14 cycles
 SCF Done:  E(RB3LYP) =  -269.286839715     A.U. after   13 cycles
 SCF Done:  E(RB3LYP) =  -269.289759407     A.U. after   13 cycles
 SCF Done:  E(RB3LYP) =  -269.290319335     A.U. after   12 cycles
 SCF Done:  E(RB3LYP) =  -269.290255399     A.U. after   12 cycles
 SCF Done:  E(RB3LYP) =  -269.290681436     A.U. after   12 cycles
 SCF Done:  E(RB3LYP) =  -269.290662645     A.U. after   12 cycles
 SCF Done:  E(RB3LYP) =  -269.290702336     A.U. after   11 cycles
 SCF Done:  E(RB3LYP) =  -269.290704865     A.U. after    9 cycles
 SCF Done:  E(RB3LYP) =  -269.290705598     A.U. after   10 cycles
 SCF Done:  E(RB3LYP) =  -269.290705776     A.U. after    8 cycles
 Optimization completed.
    -- Stationary point found.
 Normal termination of Gaussian 16 at Thu Dec  7 02:09:59 2017.

 --------------------------------------------------------------------
 #P Geom=AllCheck Guess=TCheck SCRF=Check GenChk RB3LYP/6-31G(d) Freq
 --------------------------------------------------------------------

 Structure from the checkpoint file:  "/scratch/dhuang9_oxyallyl_isolated_b3lyp_631gs_pfb/Gau-84008.chk"
 -----------------
 Solvated Isolated
 -----------------
 Charge =  0 Multiplicity = 1

                         Standard orientation:
 ---------------------------------------------------------------------
 Center     Atomic      Atomic             Coordinates (Angstroms)
 Number     Number       Type             X           Y           Z
 ---------------------------------------------------------------------
      1          6           0        0.947338    0.000008   -0.000077
      2          6           0        0.035080    1.122887   -0.000184
      3          6           0       -1.393983    0.769563    0.000136
      4          6           0       -1.393977   -0.769566   -0.000097
      5          6           0        0.035084   -1.122883    0.000000
      6          1           0        0.385187    2.152574   -0.000223
      7          1           0       -1.919261    1.185679    0.874536
      8          1           0       -1.920274    1.186616   -0.873154
      9          1           0       -1.920033   -1.186444    0.873447
     10          1           0       -1.919480   -1.185873   -0.874246
     11          1           0        0.385175   -2.152575    0.000292
     12          8           0        2.191429   -0.000003    0.000085
 ---------------------------------------------------------------------

 SCF Done:  E(RB3LYP) =  -269.290705776     A.U. after    1 cycles

 The electronic state is 1-A.
 Alpha  occ. eigenvalues --  -19.06242 -10.24012 -10.23276 -10.23275 -10.21688
 Alpha  occ. eigenvalues --  -10.21668  -0.96955  -0.86392  -0.73212  -0.70691
 Alpha  occ. eigenvalues --   -0.59142  -0.54379  -0.48726  -0.48149  -0.41327
 Alpha  occ. eigenvalues --   -0.39231  -0.39081  -0.37830  -0.36864  -0.35587
 Alpha  occ. eigenvalues --   -0.20886  -0.20188
 Alpha virt. eigenvalues --   -0.11577   0.08260   0.08263   0.12544   0.13501
 Alpha virt. eigenvalues --    0.14374   0.15708   0.18213   0.19178   0.20467
 Alpha virt. eigenvalues --    0.29307   0.31119   0.32874   0.43565   0.51341

 Mulliken charges:
               1
     1  C    0.419442
     2  C   -0.119852
     3  C   -0.328530
     4  C   -0.328531
     5  C   -0.119848
     6  H    0.173485
     7  H    0.190187
     8  H    0.190148
     9  H    0.190144
    10  H    0.190192
    11  H    0.173486
    12  O   -0.630322
 Sum of Mulliken charges =   0.00000

 Dipole moment (field-independent basis, Debye):
    X=             -6.4561    Y=              0.0000    Z=              0.0001  Tot=              6.4561
 Quadrupole moment (field-independent basis, Debye-Ang):
   XX=            -44.6077   YY=            -29.8154   ZZ=            -34.5606
   XY=              0.0001   XZ=             -0.0007   YZ=             -0.0002

  Exact polarizability:  74.200   0.000  84.500   0.000  -0.001  33.919
 Approx polarizability: 106.065   0.000 184.819   0.002  -0.001  47.322

                      1                      2                      3
                      A                      A                      A
 Frequencies --    122.3881               177.2618               432.7364
 Red. masses --      2.8095                 1.5001                 5.0915
 Frc consts  --      0.0248                 0.0278                 0.5617
 IR Inten    --      4.8862                 0.0000                 0.0058

                      4                      5                      6
                      A                      A                      A
 Frequencies --    438.2817               650.8553               682.4968
 Red. masses --      1.8709                 7.8584                 1.5605
 Frc consts  --      0.2117                 1.9614                 0.4283
 IR Inten    --      6.1511                 5.2703                24.6533

                      7                      8                      9
                      A                      A                      A
 Frequencies --    758.1315               845.0483               899.3798
 Red. masses --      5.5823                 1.1255                 1.6234
 Frc consts  --      1.8904                 0.4736                 0.7737
 IR Inten    --      2.3159                 0.0000                15.6900

                     10                     11                     12
                      A                      A                      A
 Frequencies --    928.1906               945.6993               986.6725
 Red. masses --      3.0759                 2.9883                 1.5058
 Frc consts  --      1.5613                 1.5746                 0.8637
 IR Inten    --      6.0423                 3.1245                55.4859

                     13                     14                     15
                      A                      A                      A
 Frequencies --    990.0247              1081.9114              1105.3054
 Red. masses --      2.2002                 1.2575                 1.1269
 Frc consts  --      1.2706                 0.8673                 0.8112
 IR Inten    --      0.0021                 0.8889                 0.0242

                     16                     17                     18
                      A                      A                      A
 Frequencies --   1187.2624              1219.9147              1296.0217
 Red. masses --      1.1485                 2.7882                 3.1680
 Frc consts  --      0.9538                 2.4447                 3.1351
 IR Inten    --      0.0000                35.2352                 2.3996

                     19                     20                     21
                      A                      A                      A
 Frequencies --   1312.1679              1371.9014              1384.3277
 Red. masses --      1.8083                 2.7977                 1.9767
 Frc consts  --      1.8344                 3.1024                 2.2319
 IR Inten    --    115.2067                 0.0003                34.8419

                     22                     23                     24
                      A                      A                      A
 Frequencies --   1455.4029              1473.0184              1726.8453
 Red. masses --      1.0956                 1.0852                 9.1211
 Frc consts  --      1.3674                 1.3873                16.0253
 IR Inten    --      3.2443                26.2004               575.3328

                     25                     26                     27
                      A                      A                      A
 Frequencies --   3009.3358              3012.6494              3022.7315
 Red. masses --      1.0601                 1.0611                 1.0999
 Frc consts  --      5.6561                 5.6743                 5.9210
 IR Inten    --     12.7107                11.7772                 0.0038

                     28                     29                     30
                      A                      A                      A
 Frequencies --   3031.1954              3208.7307              3208.9631
 Red. masses --      1.0981                 1.0907                 1.0915
 Frc consts  --      5.9443                 6.6166                 6.6221
 IR Inten    --     13.4595                 8.1320                 6.3816

 - Thermochemistry -
 -------------------
 Temperature   298.150 Kelvin.  Pressure   1.00000 Atm.
 Atom     1 has atomic number  6 and mass  12.00000

 Molecular mass:    82.04186 amu.
 Principal axes and moments of inertia in atomic units:
                           1         2         3
     Eigenvalues --   223.42105 542.48912 743.92434
           X            1.00000   0.00000  -0.00001
           Y            0.00000   1.00000   0.00000
           Z            0.00001   0.00000   1.00000
 This molecule is an asymmetric top.
 Rotational symmetry number  1.
 Rotational temperatures (Kelvin)      0.38767     0.15966     0.11643
 Rotational constants (GHZ):           8.07776     3.32678     2.42597
 Zero-point vibrational energy     251005.6 (Joules/Mol)
                                   59.99177 (Kcal/Mol)
 Warning -- explicit consideration of   4 degrees of freedom as
           vibrations may cause significant error
 Vibrational temperatures:    176.09   255.04   622.61   630.59   936.44
          (Kelvin)            981.96  1090.78  1215.84  1294.01  1335.46
                             1360.65  1419.60  1424.42  1556.63  1590.29
                             1708.21  1755.19  1864.69  1887.92  1973.86
                             1991.74  2094.00  2119.34  2484.55  4329.76
                             4334.53  4349.04  4361.21  4616.65  4616.98

 Zero-point correction=                           0.095603 (Hartree/Particle)
 Thermal correction to Energy=                    0.101051
 Thermal correction to Enthalpy=                  0.101995
 Thermal correction to Gibbs Free Energy=         0.066712
 Sum of electronic and zero-point Energies=           -269.195103
 Sum of electronic and thermal Energies=              -269.189655
 Sum of electronic and thermal Enthalpies=            -269.188711
 Sum of electronic and thermal Free Energies=         -269.223994

                     E (Thermal)             CV                S
                      KCal/Mol        Cal/Mol-Kelvin    Cal/Mol-Kelvin
 Total                   63.410             19.524             74.259
 Electronic               0.000              0.000              0.000
 Translational            0.889              2.981             39.128
 Rotational               0.889              2.981             26.003
 Vibrational             61.633             13.563              9.129
 Vibration     1          0.610              1.930              3.062
 Vibration     2          0.628              1.870              2.357
 Vibration     3          0.794              1.399              0.850
 Vibration     4          0.798              1.387              0.832

 Optimization completed.
    -- Stationary point found.
 Normal termination of Gaussian 16 at Thu Dec  7 02:11:25 2017.
